LAMMPS (17 Jan 2018)
## ---Preamble--- ##
units micro
atom_style hybrid sphere paramagnet
boundary p p f
neighbor 4.0 nsq
pair_style lj/cut/dipole/cut 1 30

## ---Set World-- ##
region space block -23.0 23.0 -23.0 23.0 -2.1 2.1 # this is in microns
create_box 1 space
Created orthogonal box = (-23 -23 -2.1) to (23 23 2.1)
  1 by 1 by 1 MPI processor grid

create_atoms 1 single -21.7605 -17.6106 -0.631394
Created 1 atoms
  Time spent = 6.91414e-06 secs
create_atoms 1 single -14.6462 -21.027 0.443789
Created 1 atoms
  Time spent = 0.000885963 secs
create_atoms 1 single -11.6394 -20.1649 0.0879438
Created 1 atoms
  Time spent = 9.53674e-07 secs
create_atoms 1 single -9.11423 -21.6235 0.214781
Created 1 atoms
  Time spent = 9.53674e-07 secs
create_atoms 1 single -6.31625 -22.1312 0.669296
Created 1 atoms
  Time spent = 9.53674e-07 secs
create_atoms 1 single -3.35375 -20.4559 0.53438
Created 1 atoms
  Time spent = 0 secs
create_atoms 1 single 1.83642 -19.3672 -0.343761
Created 1 atoms
  Time spent = 1.19209e-06 secs
create_atoms 1 single 5.60822 -22.8094 -0.216654
Created 1 atoms
  Time spent = 9.53674e-07 secs
create_atoms 1 single 8.5642 -19.2783 0.00250538
Created 1 atoms
  Time spent = 9.53674e-07 secs
create_atoms 1 single 14.1637 -22.4272 0.628639
Created 1 atoms
  Time spent = 9.53674e-07 secs
create_atoms 1 single 16.9955 21.9917 -0.570449
Created 1 atoms
  Time spent = 0 secs
create_atoms 1 single 19.8797 -20.2733 0.552313
Created 1 atoms
  Time spent = 1.19209e-06 secs
create_atoms 1 single -20.9123 -13.3842 -0.286277
Created 1 atoms
  Time spent = 9.53674e-07 secs
create_atoms 1 single -17.2535 -17.5134 0.562215
Created 1 atoms
  Time spent = 0 secs
create_atoms 1 single -12.3485 -15.3684 0.535289
Created 1 atoms
  Time spent = 9.53674e-07 secs
create_atoms 1 single -9.58221 -17.6322 0.25689
Created 1 atoms
  Time spent = 9.53674e-07 secs
create_atoms 1 single -6.44988 -18.0915 0.000182995
Created 1 atoms
  Time spent = 1.19209e-06 secs
create_atoms 1 single -0.630959 -18.0062 -0.11051
Created 1 atoms
  Time spent = 9.53674e-07 secs
create_atoms 1 single 1.73768 -16.1314 0.136187
Created 1 atoms
  Time spent = 9.53674e-07 secs
create_atoms 1 single 5.11354 -18.435 0.252278
Created 1 atoms
  Time spent = 9.53674e-07 secs
create_atoms 1 single 11.9756 -20.345 0.215033
Created 1 atoms
  Time spent = 1.19209e-06 secs
create_atoms 1 single 14.589 -17.8583 0.185608
Created 1 atoms
  Time spent = 9.53674e-07 secs
create_atoms 1 single 17.1961 -20.4051 -0.698864
Created 1 atoms
  Time spent = 0 secs
create_atoms 1 single 21.3388 -17.96 -0.697929
Created 1 atoms
  Time spent = 9.53674e-07 secs
create_atoms 1 single -18.474 -11.8788 0.342666
Created 1 atoms
  Time spent = 0 secs
create_atoms 1 single -15.2713 -14.7462 -0.0179958
Created 1 atoms
  Time spent = 0 secs
create_atoms 1 single -13.0107 -12.0213 0.578445
Created 1 atoms
  Time spent = 9.53674e-07 secs
create_atoms 1 single -10.1444 -13.3083 -0.614058
Created 1 atoms
  Time spent = 0 secs
create_atoms 1 single -5.86002 -14.6718 -0.697365
Created 1 atoms
  Time spent = 9.53674e-07 secs
create_atoms 1 single 0.110542 -13.8948 -0.553649
Created 1 atoms
  Time spent = 1.19209e-06 secs
create_atoms 1 single 3.00845 -13.6569 -0.494218
Created 1 atoms
  Time spent = 9.53674e-07 secs
create_atoms 1 single 7.65142 -12.2384 0.0620311
Created 1 atoms
  Time spent = 9.53674e-07 secs
create_atoms 1 single 10.2507 -15.535 -0.655401
Created 1 atoms
  Time spent = 0 secs
create_atoms 1 single 13.8169 -14.0368 -0.52039
Created 1 atoms
  Time spent = 9.53674e-07 secs
create_atoms 1 single 17.7415 -16.8715 -0.444563
Created 1 atoms
  Time spent = 9.53674e-07 secs
create_atoms 1 single 19.9873 -15.1981 -0.121071
Created 1 atoms
  Time spent = 1.19209e-06 secs
create_atoms 1 single -18.1379 -8.91676 0.236832
Created 1 atoms
  Time spent = 0 secs
create_atoms 1 single -15.4004 -11.1036 -0.562573
Created 1 atoms
  Time spent = 0 secs
create_atoms 1 single -14.2256 -7.73343 0.56132
Created 1 atoms
  Time spent = 9.53674e-07 secs
create_atoms 1 single -10.1673 -8.35127 0.424467
Created 1 atoms
  Time spent = 9.53674e-07 secs
create_atoms 1 single -7.84447 -10.9313 -0.51757
Created 1 atoms
  Time spent = 9.53674e-07 secs
create_atoms 1 single -3.96265 -10.9579 0.205022
Created 1 atoms
  Time spent = 9.53674e-07 secs
create_atoms 1 single 0.929214 -10.0247 -0.499191
Created 1 atoms
  Time spent = 9.53674e-07 secs
create_atoms 1 single 4.03162 -10.4094 -0.172059
Created 1 atoms
  Time spent = 0 secs
create_atoms 1 single 6.50934 -8.62453 0.389737
Created 1 atoms
  Time spent = 9.53674e-07 secs
create_atoms 1 single 14.291 -8.40444 -0.0303937
Created 1 atoms
  Time spent = 9.53674e-07 secs
create_atoms 1 single 16.5456 -11.9964 -0.407842
Created 1 atoms
  Time spent = 9.53674e-07 secs
create_atoms 1 single 20.5927 -9.86152 -0.473863
Created 1 atoms
  Time spent = 9.53674e-07 secs
create_atoms 1 single -22.7313 -7.42578 -0.477274
Created 1 atoms
  Time spent = 9.53674e-07 secs
create_atoms 1 single -17.6323 -5.57979 0.063206
Created 1 atoms
  Time spent = 0 secs
create_atoms 1 single -13.7113 -3.99952 -0.237839
Created 1 atoms
  Time spent = 9.53674e-07 secs
create_atoms 1 single -7.51209 -5.12823 0.173171
Created 1 atoms
  Time spent = 9.53674e-07 secs
create_atoms 1 single -4.50155 -4.75619 -0.0344186
Created 1 atoms
  Time spent = 9.53674e-07 secs
create_atoms 1 single -2.53935 -8.43453 -0.20673
Created 1 atoms
  Time spent = 0 secs
create_atoms 1 single 2.12298 -6.5609 0.168265
Created 1 atoms
  Time spent = 0 secs
create_atoms 1 single 5.0914 -5.9872 0.537079
Created 1 atoms
  Time spent = 9.53674e-07 secs
create_atoms 1 single 9.92263 -6.91546 0.46764
Created 1 atoms
  Time spent = 0 secs
create_atoms 1 single 12.6526 -6.07448 -0.219449
Created 1 atoms
  Time spent = 0 secs
create_atoms 1 single 18.5357 -5.76625 0.137051
Created 1 atoms
  Time spent = 1.19209e-06 secs
create_atoms 1 single 21.4396 -5.42964 0.323298
Created 1 atoms
  Time spent = 9.53674e-07 secs
create_atoms 1 single -20.4709 -5.50043 0.534699
Created 1 atoms
  Time spent = 9.53674e-07 secs
create_atoms 1 single -16.7802 -1.72584 -0.252899
Created 1 atoms
  Time spent = 1.19209e-06 secs
create_atoms 1 single -14.2637 -0.602178 0.650011
Created 1 atoms
  Time spent = 9.53674e-07 secs
create_atoms 1 single -10.8149 -2.30785 0.398634
Created 1 atoms
  Time spent = 9.53674e-07 secs
create_atoms 1 single -8.13893 -1.48075 0.216207
Created 1 atoms
  Time spent = 0 secs
create_atoms 1 single -5.27406 -0.926628 -0.209724
Created 1 atoms
  Time spent = 1.19209e-06 secs
create_atoms 1 single 0.470924 -0.438952 0.556686
Created 1 atoms
  Time spent = 9.53674e-07 secs
create_atoms 1 single 3.17041 -1.45438 0.221676
Created 1 atoms
  Time spent = 9.53674e-07 secs
create_atoms 1 single 7.79082 -4.43394 0.225819
Created 1 atoms
  Time spent = 9.53674e-07 secs
create_atoms 1 single 14.8297 -2.7841 -0.572546
Created 1 atoms
  Time spent = 9.53674e-07 secs
create_atoms 1 single 19.7428 -1.4474 0.641011
Created 1 atoms
  Time spent = 9.53674e-07 secs
create_atoms 1 single 22.166 -2.36449 -0.521223
Created 1 atoms
  Time spent = 0 secs
create_atoms 1 single -19.8027 0.584051 0.225724
Created 1 atoms
  Time spent = 9.53674e-07 secs
create_atoms 1 single -15.2828 3.24818 0.236515
Created 1 atoms
  Time spent = 1.19209e-06 secs
create_atoms 1 single -11.6635 2.15021 0.230655
Created 1 atoms
  Time spent = 1.19209e-06 secs
create_atoms 1 single -8.24076 1.20045 -0.637802
Created 1 atoms
  Time spent = 9.53674e-07 secs
create_atoms 1 single -5.02936 3.52927 0.386124
Created 1 atoms
  Time spent = 2.14577e-06 secs
create_atoms 1 single -2.43014 2.36393 -0.331175
Created 1 atoms
  Time spent = 9.53674e-07 secs
create_atoms 1 single 0.632537 2.74935 0.249534
Created 1 atoms
  Time spent = 9.53674e-07 secs
create_atoms 1 single 7.55214 -1.41578 0.191744
Created 1 atoms
  Time spent = 1.19209e-06 secs
create_atoms 1 single 10.5356 3.98564 0.183106
Created 1 atoms
  Time spent = 9.53674e-07 secs
create_atoms 1 single 11.9676 1.06944 0.480354
Created 1 atoms
  Time spent = 9.53674e-07 secs
create_atoms 1 single 15.5301 0.505634 0.178381
Created 1 atoms
  Time spent = 9.53674e-07 secs
create_atoms 1 single -23.2991 0.769435 0.495176
Created 0 atoms
  Time spent = 9.53674e-07 secs
create_atoms 1 single -19.1187 7.90666 -0.0827932
Created 1 atoms
  Time spent = 1.90735e-06 secs
create_atoms 1 single -17.0083 6.06386 -0.123971
Created 1 atoms
  Time spent = 9.53674e-07 secs
create_atoms 1 single -13.0768 6.13021 0.344447
Created 1 atoms
  Time spent = 1.19209e-06 secs
create_atoms 1 single -7.86798 3.81999 0.247054
Created 1 atoms
  Time spent = 9.53674e-07 secs
create_atoms 1 single -3.1316 5.68052 0.414043
Created 1 atoms
  Time spent = 9.53674e-07 secs
create_atoms 1 single -1.11571 8.55721 0.291779
Created 1 atoms
  Time spent = 9.53674e-07 secs
create_atoms 1 single 3.31936 8.17031 -0.577539
Created 1 atoms
  Time spent = 2.09808e-05 secs
create_atoms 1 single 3.7419 1.3883 0.215374
Created 1 atoms
  Time spent = 9.53674e-07 secs
create_atoms 1 single 7.81375 5.63488 0.0995458
Created 1 atoms
  Time spent = 2.14577e-06 secs
create_atoms 1 single 13.6309 6.09097 -0.590931
Created 1 atoms
  Time spent = 9.53674e-07 secs
create_atoms 1 single 16.5082 5.33561 -0.00763253
Created 1 atoms
  Time spent = 9.53674e-07 secs
create_atoms 1 single 19.0486 3.97442 -0.678573
Created 1 atoms
  Time spent = 9.53674e-07 secs
create_atoms 1 single -21.0372 10.0713 -0.0758454
Created 1 atoms
  Time spent = 9.53674e-07 secs
create_atoms 1 single -15.5443 11.5416 0.637455
Created 1 atoms
  Time spent = 9.53674e-07 secs
create_atoms 1 single -13.7437 9.3878 0.587599
Created 1 atoms
  Time spent = 9.53674e-07 secs
create_atoms 1 single -10.3939 9.43021 -0.00508435
Created 1 atoms
  Time spent = 9.53674e-07 secs
create_atoms 1 single -8.06967 7.52946 -0.618872
Created 1 atoms
  Time spent = 9.53674e-07 secs
create_atoms 1 single -5.43557 9.56611 0.57307
Created 1 atoms
  Time spent = 9.53674e-07 secs
create_atoms 1 single 2.19084 12.0532 -0.531208
Created 1 atoms
  Time spent = 9.53674e-07 secs
create_atoms 1 single 5.20117 10.6315 0.368192
Created 1 atoms
  Time spent = 1.90735e-06 secs
create_atoms 1 single 9.94693 8.57057 -0.158692
Created 1 atoms
  Time spent = 1.19209e-06 secs
create_atoms 1 single 15.2681 9.822 -0.526608
Created 1 atoms
  Time spent = 1.90735e-06 secs
create_atoms 1 single 18.0784 9.66844 0.115878
Created 1 atoms
  Time spent = 9.53674e-07 secs
create_atoms 1 single 23.5251 6.8994 -0.106417
Created 0 atoms
  Time spent = 9.53674e-07 secs
create_atoms 1 single -21.8075 13.0142 0.491063
Created 1 atoms
  Time spent = 9.53674e-07 secs
create_atoms 1 single -17.6192 15.1559 0.124672
Created 1 atoms
  Time spent = 1.19209e-06 secs
create_atoms 1 single -12.8883 12.4432 0.50323
Created 1 atoms
  Time spent = 9.53674e-07 secs
create_atoms 1 single -8.70632 14.3885 0.563791
Created 1 atoms
  Time spent = 9.53674e-07 secs
create_atoms 1 single -5.47654 13.8335 0.646919
Created 1 atoms
  Time spent = 2.14577e-06 secs
create_atoms 1 single -2.73452 12.3542 -0.0693587
Created 1 atoms
  Time spent = 9.53674e-07 secs
create_atoms 1 single 2.69269 15.0083 -0.703185
Created 1 atoms
  Time spent = 9.53674e-07 secs
create_atoms 1 single 5.02764 13.462 0.411274
Created 1 atoms
  Time spent = 2.14577e-06 secs
create_atoms 1 single 8.04325 11.407 0.335137
Created 1 atoms
  Time spent = 9.53674e-07 secs
create_atoms 1 single 13.498 13.7708 -0.694475
Created 1 atoms
  Time spent = 9.53674e-07 secs
create_atoms 1 single 15.5798 15.324 0.689628
Created 1 atoms
  Time spent = 2.14577e-06 secs
create_atoms 1 single 18.5218 13.6374 -0.18406
Created 1 atoms
  Time spent = 9.53674e-07 secs
create_atoms 1 single -18.6493 17.7216 -0.287332
Created 1 atoms
  Time spent = 9.53674e-07 secs
create_atoms 1 single -16.0078 21.521 -0.0429795
Created 1 atoms
  Time spent = 9.53674e-07 secs
create_atoms 1 single -14.8491 18.3756 -0.697637
Created 1 atoms
  Time spent = 9.53674e-07 secs
create_atoms 1 single -10.7753 17.0848 0.23606
Created 1 atoms
  Time spent = 1.19209e-06 secs
create_atoms 1 single -7.18974 17.2541 -0.0361111
Created 1 atoms
  Time spent = 9.53674e-07 secs
create_atoms 1 single -1.63171 16.1973 0.382146
Created 1 atoms
  Time spent = 9.53674e-07 secs
create_atoms 1 single 4.75645 16.935 0.536751
Created 1 atoms
  Time spent = 1.90735e-06 secs
create_atoms 1 single 7.6831 17.2665 0.0375857
Created 1 atoms
  Time spent = 9.53674e-07 secs
create_atoms 1 single 10.4864 16.3662 0.152076
Created 1 atoms
  Time spent = 9.53674e-07 secs
create_atoms 1 single 14.0178 17.5787 -0.401762
Created 1 atoms
  Time spent = 6.91414e-06 secs
create_atoms 1 single 15.4973 19.7994 0.407093
Created 1 atoms
  Time spent = 2.14577e-06 secs
create_atoms 1 single 23.2344 17.9124 -0.663355
Created 0 atoms
  Time spent = 1.19209e-06 secs
create_atoms 1 single -19.0043 21.3233 0.294845
Created 1 atoms
  Time spent = 9.53674e-07 secs
create_atoms 1 single -17.6079 -21.2855 0.575344
Created 1 atoms
  Time spent = 9.53674e-07 secs
create_atoms 1 single -13.2067 22.181 -0.634085
Created 1 atoms
  Time spent = 1.90735e-06 secs
create_atoms 1 single -9.38045 20.5731 -0.441386
Created 1 atoms
  Time spent = 2.14577e-06 secs
create_atoms 1 single -4.49739 18.9677 -0.209525
Created 1 atoms
  Time spent = 9.53674e-07 secs
create_atoms 1 single -3.89913 22.7859 -0.50496
Created 1 atoms
  Time spent = 9.53674e-07 secs
create_atoms 1 single 3.47174 20.4008 -0.533192
Created 1 atoms
  Time spent = 2.14577e-06 secs
create_atoms 1 single 7.03306 20.7224 -0.293195
Created 1 atoms
  Time spent = 2.14577e-06 secs
create_atoms 1 single 9.7088 22.5616 0.448525
Created 1 atoms
  Time spent = 9.53674e-07 secs
create_atoms 1 single 12.7985 20.8698 -0.568062
Created 1 atoms
  Time spent = 9.53674e-07 secs
create_atoms 1 single 18.5256 17.633 -0.452132
Created 1 atoms
  Time spent = 2.14577e-06 secs
create_atoms 1 single 21.0825 20.8075 -0.0219593
Created 1 atoms
  Time spent = 9.53674e-07 secs

group Atoms type 1
141 atoms in group Atoms
pair_coeff * * 0.01 2.49451641079295 2.8 30

## ---Particle Properties---##
mass * 1
set atom 1 mass 1.0 susceptibility 0.4 diameter 2.8
  1 settings made for mass
  1 settings made for susceptibility
  1 settings made for diameter
set atom 2 mass 1.0 susceptibility 0.4 diameter 2.8
  1 settings made for mass
  1 settings made for susceptibility
  1 settings made for diameter
set atom 3 mass 1.0 susceptibility 0.4 diameter 2.8
  1 settings made for mass
  1 settings made for susceptibility
  1 settings made for diameter
set atom 4 mass 1.0 susceptibility 0.4 diameter 2.8
  1 settings made for mass
  1 settings made for susceptibility
  1 settings made for diameter
set atom 5 mass 1.0 susceptibility 0.4 diameter 2.8
  1 settings made for mass
  1 settings made for susceptibility
  1 settings made for diameter
set atom 6 mass 1.0 susceptibility 0.4 diameter 2.8
  1 settings made for mass
  1 settings made for susceptibility
  1 settings made for diameter
set atom 7 mass 1.0 susceptibility 0.4 diameter 2.8
  1 settings made for mass
  1 settings made for susceptibility
  1 settings made for diameter
set atom 8 mass 1.0 susceptibility 0.4 diameter 2.8
  1 settings made for mass
  1 settings made for susceptibility
  1 settings made for diameter
set atom 9 mass 1.0 susceptibility 0.4 diameter 2.8
  1 settings made for mass
  1 settings made for susceptibility
  1 settings made for diameter
set atom 10 mass 1.0 susceptibility 0.4 diameter 2.8
  1 settings made for mass
  1 settings made for susceptibility
  1 settings made for diameter
set atom 11 mass 1.0 susceptibility 0.4 diameter 2.8
  1 settings made for mass
  1 settings made for susceptibility
  1 settings made for diameter
set atom 12 mass 1.0 susceptibility 0.4 diameter 2.8
  1 settings made for mass
  1 settings made for susceptibility
  1 settings made for diameter
set atom 13 mass 1.0 susceptibility 0.4 diameter 2.8
  1 settings made for mass
  1 settings made for susceptibility
  1 settings made for diameter
set atom 14 mass 1.0 susceptibility 0.4 diameter 2.8
  1 settings made for mass
  1 settings made for susceptibility
  1 settings made for diameter
set atom 15 mass 1.0 susceptibility 0.4 diameter 2.8
  1 settings made for mass
  1 settings made for susceptibility
  1 settings made for diameter
set atom 16 mass 1.0 susceptibility 0.4 diameter 2.8
  1 settings made for mass
  1 settings made for susceptibility
  1 settings made for diameter
set atom 17 mass 1.0 susceptibility 0.4 diameter 2.8
  1 settings made for mass
  1 settings made for susceptibility
  1 settings made for diameter
set atom 18 mass 1.0 susceptibility 0.4 diameter 2.8
  1 settings made for mass
  1 settings made for susceptibility
  1 settings made for diameter
set atom 19 mass 1.0 susceptibility 0.4 diameter 2.8
  1 settings made for mass
  1 settings made for susceptibility
  1 settings made for diameter
set atom 20 mass 1.0 susceptibility 0.4 diameter 2.8
  1 settings made for mass
  1 settings made for susceptibility
  1 settings made for diameter
set atom 21 mass 1.0 susceptibility 0.4 diameter 2.8
  1 settings made for mass
  1 settings made for susceptibility
  1 settings made for diameter
set atom 22 mass 1.0 susceptibility 0.4 diameter 2.8
  1 settings made for mass
  1 settings made for susceptibility
  1 settings made for diameter
set atom 23 mass 1.0 susceptibility 0.4 diameter 2.8
  1 settings made for mass
  1 settings made for susceptibility
  1 settings made for diameter
set atom 24 mass 1.0 susceptibility 0.4 diameter 2.8
  1 settings made for mass
  1 settings made for susceptibility
  1 settings made for diameter
set atom 25 mass 1.0 susceptibility 0.4 diameter 2.8
  1 settings made for mass
  1 settings made for susceptibility
  1 settings made for diameter
set atom 26 mass 1.0 susceptibility 0.4 diameter 2.8
  1 settings made for mass
  1 settings made for susceptibility
  1 settings made for diameter
set atom 27 mass 1.0 susceptibility 0.4 diameter 2.8
  1 settings made for mass
  1 settings made for susceptibility
  1 settings made for diameter
set atom 28 mass 1.0 susceptibility 0.4 diameter 2.8
  1 settings made for mass
  1 settings made for susceptibility
  1 settings made for diameter
set atom 29 mass 1.0 susceptibility 0.4 diameter 2.8
  1 settings made for mass
  1 settings made for susceptibility
  1 settings made for diameter
set atom 30 mass 1.0 susceptibility 0.4 diameter 2.8
  1 settings made for mass
  1 settings made for susceptibility
  1 settings made for diameter
set atom 31 mass 1.0 susceptibility 0.4 diameter 2.8
  1 settings made for mass
  1 settings made for susceptibility
  1 settings made for diameter
set atom 32 mass 1.0 susceptibility 0.4 diameter 2.8
  1 settings made for mass
  1 settings made for susceptibility
  1 settings made for diameter
set atom 33 mass 1.0 susceptibility 0.4 diameter 2.8
  1 settings made for mass
  1 settings made for susceptibility
  1 settings made for diameter
set atom 34 mass 1.0 susceptibility 0.4 diameter 2.8
  1 settings made for mass
  1 settings made for susceptibility
  1 settings made for diameter
set atom 35 mass 1.0 susceptibility 0.4 diameter 2.8
  1 settings made for mass
  1 settings made for susceptibility
  1 settings made for diameter
set atom 36 mass 1.0 susceptibility 0.4 diameter 2.8
  1 settings made for mass
  1 settings made for susceptibility
  1 settings made for diameter
set atom 37 mass 1.0 susceptibility 0.4 diameter 2.8
  1 settings made for mass
  1 settings made for susceptibility
  1 settings made for diameter
set atom 38 mass 1.0 susceptibility 0.4 diameter 2.8
  1 settings made for mass
  1 settings made for susceptibility
  1 settings made for diameter
set atom 39 mass 1.0 susceptibility 0.4 diameter 2.8
  1 settings made for mass
  1 settings made for susceptibility
  1 settings made for diameter
set atom 40 mass 1.0 susceptibility 0.4 diameter 2.8
  1 settings made for mass
  1 settings made for susceptibility
  1 settings made for diameter
set atom 41 mass 1.0 susceptibility 0.4 diameter 2.8
  1 settings made for mass
  1 settings made for susceptibility
  1 settings made for diameter
set atom 42 mass 1.0 susceptibility 0.4 diameter 2.8
  1 settings made for mass
  1 settings made for susceptibility
  1 settings made for diameter
set atom 43 mass 1.0 susceptibility 0.4 diameter 2.8
  1 settings made for mass
  1 settings made for susceptibility
  1 settings made for diameter
set atom 44 mass 1.0 susceptibility 0.4 diameter 2.8
  1 settings made for mass
  1 settings made for susceptibility
  1 settings made for diameter
set atom 45 mass 1.0 susceptibility 0.4 diameter 2.8
  1 settings made for mass
  1 settings made for susceptibility
  1 settings made for diameter
set atom 46 mass 1.0 susceptibility 0.4 diameter 2.8
  1 settings made for mass
  1 settings made for susceptibility
  1 settings made for diameter
set atom 47 mass 1.0 susceptibility 0.4 diameter 2.8
  1 settings made for mass
  1 settings made for susceptibility
  1 settings made for diameter
set atom 48 mass 1.0 susceptibility 0.4 diameter 2.8
  1 settings made for mass
  1 settings made for susceptibility
  1 settings made for diameter
set atom 49 mass 1.0 susceptibility 0.4 diameter 2.8
  1 settings made for mass
  1 settings made for susceptibility
  1 settings made for diameter
set atom 50 mass 1.0 susceptibility 0.4 diameter 2.8
  1 settings made for mass
  1 settings made for susceptibility
  1 settings made for diameter
set atom 51 mass 1.0 susceptibility 0.4 diameter 2.8
  1 settings made for mass
  1 settings made for susceptibility
  1 settings made for diameter
set atom 52 mass 1.0 susceptibility 0.4 diameter 2.8
  1 settings made for mass
  1 settings made for susceptibility
  1 settings made for diameter
set atom 53 mass 1.0 susceptibility 0.4 diameter 2.8
  1 settings made for mass
  1 settings made for susceptibility
  1 settings made for diameter
set atom 54 mass 1.0 susceptibility 0.4 diameter 2.8
  1 settings made for mass
  1 settings made for susceptibility
  1 settings made for diameter
set atom 55 mass 1.0 susceptibility 0.4 diameter 2.8
  1 settings made for mass
  1 settings made for susceptibility
  1 settings made for diameter
set atom 56 mass 1.0 susceptibility 0.4 diameter 2.8
  1 settings made for mass
  1 settings made for susceptibility
  1 settings made for diameter
set atom 57 mass 1.0 susceptibility 0.4 diameter 2.8
  1 settings made for mass
  1 settings made for susceptibility
  1 settings made for diameter
set atom 58 mass 1.0 susceptibility 0.4 diameter 2.8
  1 settings made for mass
  1 settings made for susceptibility
  1 settings made for diameter
set atom 59 mass 1.0 susceptibility 0.4 diameter 2.8
  1 settings made for mass
  1 settings made for susceptibility
  1 settings made for diameter
set atom 60 mass 1.0 susceptibility 0.4 diameter 2.8
  1 settings made for mass
  1 settings made for susceptibility
  1 settings made for diameter
set atom 61 mass 1.0 susceptibility 0.4 diameter 2.8
  1 settings made for mass
  1 settings made for susceptibility
  1 settings made for diameter
set atom 62 mass 1.0 susceptibility 0.4 diameter 2.8
  1 settings made for mass
  1 settings made for susceptibility
  1 settings made for diameter
set atom 63 mass 1.0 susceptibility 0.4 diameter 2.8
  1 settings made for mass
  1 settings made for susceptibility
  1 settings made for diameter
set atom 64 mass 1.0 susceptibility 0.4 diameter 2.8
  1 settings made for mass
  1 settings made for susceptibility
  1 settings made for diameter
set atom 65 mass 1.0 susceptibility 0.4 diameter 2.8
  1 settings made for mass
  1 settings made for susceptibility
  1 settings made for diameter
set atom 66 mass 1.0 susceptibility 0.4 diameter 2.8
  1 settings made for mass
  1 settings made for susceptibility
  1 settings made for diameter
set atom 67 mass 1.0 susceptibility 0.4 diameter 2.8
  1 settings made for mass
  1 settings made for susceptibility
  1 settings made for diameter
set atom 68 mass 1.0 susceptibility 0.4 diameter 2.8
  1 settings made for mass
  1 settings made for susceptibility
  1 settings made for diameter
set atom 69 mass 1.0 susceptibility 0.4 diameter 2.8
  1 settings made for mass
  1 settings made for susceptibility
  1 settings made for diameter
set atom 70 mass 1.0 susceptibility 0.4 diameter 2.8
  1 settings made for mass
  1 settings made for susceptibility
  1 settings made for diameter
set atom 71 mass 1.0 susceptibility 0.4 diameter 2.8
  1 settings made for mass
  1 settings made for susceptibility
  1 settings made for diameter
set atom 72 mass 1.0 susceptibility 0.4 diameter 2.8
  1 settings made for mass
  1 settings made for susceptibility
  1 settings made for diameter
set atom 73 mass 1.0 susceptibility 0.4 diameter 2.8
  1 settings made for mass
  1 settings made for susceptibility
  1 settings made for diameter
set atom 74 mass 1.0 susceptibility 0.4 diameter 2.8
  1 settings made for mass
  1 settings made for susceptibility
  1 settings made for diameter
set atom 75 mass 1.0 susceptibility 0.4 diameter 2.8
  1 settings made for mass
  1 settings made for susceptibility
  1 settings made for diameter
set atom 76 mass 1.0 susceptibility 0.4 diameter 2.8
  1 settings made for mass
  1 settings made for susceptibility
  1 settings made for diameter
set atom 77 mass 1.0 susceptibility 0.4 diameter 2.8
  1 settings made for mass
  1 settings made for susceptibility
  1 settings made for diameter
set atom 78 mass 1.0 susceptibility 0.4 diameter 2.8
  1 settings made for mass
  1 settings made for susceptibility
  1 settings made for diameter
set atom 79 mass 1.0 susceptibility 0.4 diameter 2.8
  1 settings made for mass
  1 settings made for susceptibility
  1 settings made for diameter
set atom 80 mass 1.0 susceptibility 0.4 diameter 2.8
  1 settings made for mass
  1 settings made for susceptibility
  1 settings made for diameter
set atom 81 mass 1.0 susceptibility 0.4 diameter 2.8
  1 settings made for mass
  1 settings made for susceptibility
  1 settings made for diameter
set atom 82 mass 1.0 susceptibility 0.4 diameter 2.8
  1 settings made for mass
  1 settings made for susceptibility
  1 settings made for diameter
set atom 83 mass 1.0 susceptibility 0.4 diameter 2.8
  1 settings made for mass
  1 settings made for susceptibility
  1 settings made for diameter
set atom 84 mass 1.0 susceptibility 0.4 diameter 2.8
  1 settings made for mass
  1 settings made for susceptibility
  1 settings made for diameter
set atom 85 mass 1.0 susceptibility 0.4 diameter 2.8
  1 settings made for mass
  1 settings made for susceptibility
  1 settings made for diameter
set atom 86 mass 1.0 susceptibility 0.4 diameter 2.8
  1 settings made for mass
  1 settings made for susceptibility
  1 settings made for diameter
set atom 87 mass 1.0 susceptibility 0.4 diameter 2.8
  1 settings made for mass
  1 settings made for susceptibility
  1 settings made for diameter
set atom 88 mass 1.0 susceptibility 0.4 diameter 2.8
  1 settings made for mass
  1 settings made for susceptibility
  1 settings made for diameter
set atom 89 mass 1.0 susceptibility 0.4 diameter 2.8
  1 settings made for mass
  1 settings made for susceptibility
  1 settings made for diameter
set atom 90 mass 1.0 susceptibility 0.4 diameter 2.8
  1 settings made for mass
  1 settings made for susceptibility
  1 settings made for diameter
set atom 91 mass 1.0 susceptibility 0.4 diameter 2.8
  1 settings made for mass
  1 settings made for susceptibility
  1 settings made for diameter
set atom 92 mass 1.0 susceptibility 0.4 diameter 2.8
  1 settings made for mass
  1 settings made for susceptibility
  1 settings made for diameter
set atom 93 mass 1.0 susceptibility 0.4 diameter 2.8
  1 settings made for mass
  1 settings made for susceptibility
  1 settings made for diameter
set atom 94 mass 1.0 susceptibility 0.4 diameter 2.8
  1 settings made for mass
  1 settings made for susceptibility
  1 settings made for diameter
set atom 95 mass 1.0 susceptibility 0.4 diameter 2.8
  1 settings made for mass
  1 settings made for susceptibility
  1 settings made for diameter
set atom 96 mass 1.0 susceptibility 0.4 diameter 2.8
  1 settings made for mass
  1 settings made for susceptibility
  1 settings made for diameter
set atom 97 mass 1.0 susceptibility 0.4 diameter 2.8
  1 settings made for mass
  1 settings made for susceptibility
  1 settings made for diameter
set atom 98 mass 1.0 susceptibility 0.4 diameter 2.8
  1 settings made for mass
  1 settings made for susceptibility
  1 settings made for diameter
set atom 99 mass 1.0 susceptibility 0.4 diameter 2.8
  1 settings made for mass
  1 settings made for susceptibility
  1 settings made for diameter
set atom 100 mass 1.0 susceptibility 0.4 diameter 2.8
  1 settings made for mass
  1 settings made for susceptibility
  1 settings made for diameter
set atom 101 mass 1.0 susceptibility 0.4 diameter 2.8
  1 settings made for mass
  1 settings made for susceptibility
  1 settings made for diameter
set atom 102 mass 1.0 susceptibility 0.4 diameter 2.8
  1 settings made for mass
  1 settings made for susceptibility
  1 settings made for diameter
set atom 103 mass 1.0 susceptibility 0.4 diameter 2.8
  1 settings made for mass
  1 settings made for susceptibility
  1 settings made for diameter
set atom 104 mass 1.0 susceptibility 0.4 diameter 2.8
  1 settings made for mass
  1 settings made for susceptibility
  1 settings made for diameter
set atom 105 mass 1.0 susceptibility 0.4 diameter 2.8
  1 settings made for mass
  1 settings made for susceptibility
  1 settings made for diameter
set atom 106 mass 1.0 susceptibility 0.4 diameter 2.8
  1 settings made for mass
  1 settings made for susceptibility
  1 settings made for diameter
set atom 107 mass 1.0 susceptibility 0.4 diameter 2.8
  1 settings made for mass
  1 settings made for susceptibility
  1 settings made for diameter
set atom 108 mass 1.0 susceptibility 0.4 diameter 2.8
  1 settings made for mass
  1 settings made for susceptibility
  1 settings made for diameter
set atom 109 mass 1.0 susceptibility 0.4 diameter 2.8
  1 settings made for mass
  1 settings made for susceptibility
  1 settings made for diameter
set atom 110 mass 1.0 susceptibility 0.4 diameter 2.8
  1 settings made for mass
  1 settings made for susceptibility
  1 settings made for diameter
set atom 111 mass 1.0 susceptibility 0.4 diameter 2.8
  1 settings made for mass
  1 settings made for susceptibility
  1 settings made for diameter
set atom 112 mass 1.0 susceptibility 0.4 diameter 2.8
  1 settings made for mass
  1 settings made for susceptibility
  1 settings made for diameter
set atom 113 mass 1.0 susceptibility 0.4 diameter 2.8
  1 settings made for mass
  1 settings made for susceptibility
  1 settings made for diameter
set atom 114 mass 1.0 susceptibility 0.4 diameter 2.8
  1 settings made for mass
  1 settings made for susceptibility
  1 settings made for diameter
set atom 115 mass 1.0 susceptibility 0.4 diameter 2.8
  1 settings made for mass
  1 settings made for susceptibility
  1 settings made for diameter
set atom 116 mass 1.0 susceptibility 0.4 diameter 2.8
  1 settings made for mass
  1 settings made for susceptibility
  1 settings made for diameter
set atom 117 mass 1.0 susceptibility 0.4 diameter 2.8
  1 settings made for mass
  1 settings made for susceptibility
  1 settings made for diameter
set atom 118 mass 1.0 susceptibility 0.4 diameter 2.8
  1 settings made for mass
  1 settings made for susceptibility
  1 settings made for diameter
set atom 119 mass 1.0 susceptibility 0.4 diameter 2.8
  1 settings made for mass
  1 settings made for susceptibility
  1 settings made for diameter
set atom 120 mass 1.0 susceptibility 0.4 diameter 2.8
  1 settings made for mass
  1 settings made for susceptibility
  1 settings made for diameter
set atom 121 mass 1.0 susceptibility 0.4 diameter 2.8
  1 settings made for mass
  1 settings made for susceptibility
  1 settings made for diameter
set atom 122 mass 1.0 susceptibility 0.4 diameter 2.8
  1 settings made for mass
  1 settings made for susceptibility
  1 settings made for diameter
set atom 123 mass 1.0 susceptibility 0.4 diameter 2.8
  1 settings made for mass
  1 settings made for susceptibility
  1 settings made for diameter
set atom 124 mass 1.0 susceptibility 0.4 diameter 2.8
  1 settings made for mass
  1 settings made for susceptibility
  1 settings made for diameter
set atom 125 mass 1.0 susceptibility 0.4 diameter 2.8
  1 settings made for mass
  1 settings made for susceptibility
  1 settings made for diameter
set atom 126 mass 1.0 susceptibility 0.4 diameter 2.8
  1 settings made for mass
  1 settings made for susceptibility
  1 settings made for diameter
set atom 127 mass 1.0 susceptibility 0.4 diameter 2.8
  1 settings made for mass
  1 settings made for susceptibility
  1 settings made for diameter
set atom 128 mass 1.0 susceptibility 0.4 diameter 2.8
  1 settings made for mass
  1 settings made for susceptibility
  1 settings made for diameter
set atom 129 mass 1.0 susceptibility 0.4 diameter 2.8
  1 settings made for mass
  1 settings made for susceptibility
  1 settings made for diameter
set atom 130 mass 1.0 susceptibility 0.4 diameter 2.8
  1 settings made for mass
  1 settings made for susceptibility
  1 settings made for diameter
set atom 131 mass 1.0 susceptibility 0.4 diameter 2.8
  1 settings made for mass
  1 settings made for susceptibility
  1 settings made for diameter
set atom 132 mass 1.0 susceptibility 0.4 diameter 2.8
  1 settings made for mass
  1 settings made for susceptibility
  1 settings made for diameter
set atom 133 mass 1.0 susceptibility 0.4 diameter 2.8
  1 settings made for mass
  1 settings made for susceptibility
  1 settings made for diameter
set atom 134 mass 1.0 susceptibility 0.4 diameter 2.8
  1 settings made for mass
  1 settings made for susceptibility
  1 settings made for diameter
set atom 135 mass 1.0 susceptibility 0.4 diameter 2.8
  1 settings made for mass
  1 settings made for susceptibility
  1 settings made for diameter
set atom 136 mass 1.0 susceptibility 0.4 diameter 2.8
  1 settings made for mass
  1 settings made for susceptibility
  1 settings made for diameter
set atom 137 mass 1.0 susceptibility 0.4 diameter 2.8
  1 settings made for mass
  1 settings made for susceptibility
  1 settings made for diameter
set atom 138 mass 1.0 susceptibility 0.4 diameter 2.8
  1 settings made for mass
  1 settings made for susceptibility
  1 settings made for diameter
set atom 139 mass 1.0 susceptibility 0.4 diameter 2.8
  1 settings made for mass
  1 settings made for susceptibility
  1 settings made for diameter
set atom 140 mass 1.0 susceptibility 0.4 diameter 2.8
  1 settings made for mass
  1 settings made for susceptibility
  1 settings made for diameter
set atom 141 mass 1.0 susceptibility 0.4 diameter 2.8
  1 settings made for mass
  1 settings made for susceptibility
  1 settings made for diameter
set atom 142 mass 1.0 susceptibility 0.4 diameter 2.8
  0 settings made for mass
  0 settings made for susceptibility
  0 settings made for diameter
set atom 143 mass 1.0 susceptibility 0.4 diameter 2.8
  0 settings made for mass
  0 settings made for susceptibility
  0 settings made for diameter
set atom 144 mass 1.0 susceptibility 0.4 diameter 2.8
  0 settings made for mass
  0 settings made for susceptibility
  0 settings made for diameter

## ---Fixes---##
variable Bmag atom 1.3307269489288908e-05
variable omega atom 0.0
variable theta atom 0.0
variable fieldx atom v_Bmag*sin(v_omega*time)*sin(v_theta)
variable fieldy atom v_Bmag*cos(v_omega*time)*sin(v_theta)
variable fieldz atom v_Bmag*cos(v_theta)

fix 	1 Atoms bd 300 0.01825 484552
fix 	2 Atoms wall/lj126 zlo EDGE 0.01 1.247258205396475  1.4 zhi EDGE 0.01 1.247258205396475  1.4
fix 	3 Atoms setdipole v_fieldx v_fieldy v_fieldz

## ---Run Commands--##
timestep 	50.0
dump 	3 all custom 200 /home/aortiza/NematicPhase/rand1H4.2p0.42/field_5.lammpstrj id type x y z mu mux muy muz fx fy fz
thermo_style 	custom step atoms
thermo 	100
run 	1200000
Neighbor list info ...
  update every 1 steps, delay 10 steps, check yes
  max neighbors/atom: 2000, page size: 100000
  master list distance cutoff = 34
  ghost atom cutoff = 34
  1 neighbor lists, perpetual/occasional/extra = 1 0 0
  (1) pair lj/cut/dipole/cut, perpetual
      attributes: half, newton on
      pair build: half/nsq/newton
      stencil: none
      bin: none
Per MPI rank memory allocation (min/avg/max) = 6.501 | 6.501 | 6.501 Mbytes
Step Atoms 
       0      141 
     100      141 
     200      141 
     300      141 
     400      141 
     500      141 
     600      141 
     700      141 
     800      141 
     900      141 
    1000      141 
    1100      141 
    1200      141 
    1300      141 
    1400      141 
    1500      141 
    1600      141 
    1700      141 
    1800      141 
    1900      141 
    2000      141 
    2100      141 
    2200      141 
    2300      141 
    2400      141 
    2500      141 
    2600      141 
    2700      141 
    2800      141 
    2900      141 
    3000      141 
    3100      141 
    3200      141 
    3300      141 
    3400      141 
    3500      141 
    3600      141 
    3700      141 
    3800      141 
    3900      141 
    4000      141 
    4100      141 
    4200      141 
    4300      141 
    4400      141 
    4500      141 
    4600      141 
    4700      141 
    4800      141 
    4900      141 
    5000      141 
    5100      141 
    5200      141 
    5300      141 
    5400      141 
    5500      141 
    5600      141 
    5700      141 
    5800      141 
    5900      141 
    6000      141 
    6100      141 
    6200      141 
    6300      141 
    6400      141 
    6500      141 
    6600      141 
    6700      141 
    6800      141 
    6900      141 
    7000      141 
    7100      141 
    7200      141 
    7300      141 
    7400      141 
    7500      141 
    7600      141 
    7700      141 
    7800      141 
    7900      141 
    8000      141 
    8100      141 
    8200      141 
    8300      141 
    8400      141 
    8500      141 
    8600      141 
    8700      141 
    8800      141 
    8900      141 
    9000      141 
    9100      141 
    9200      141 
    9300      141 
    9400      141 
    9500      141 
    9600      141 
    9700      141 
    9800      141 
    9900      141 
   10000      141 
   10100      141 
   10200      141 
   10300      141 
   10400      141 
   10500      141 
   10600      141 
   10700      141 
   10800      141 
   10900      141 
   11000      141 
   11100      141 
   11200      141 
   11300      141 
   11400      141 
   11500      141 
   11600      141 
   11700      141 
   11800      141 
   11900      141 
   12000      141 
   12100      141 
   12200      141 
   12300      141 
   12400      141 
   12500      141 
   12600      141 
   12700      141 
   12800      141 
   12900      141 
   13000      141 
   13100      141 
   13200      141 
   13300      141 
   13400      141 
   13500      141 
   13600      141 
   13700      141 
   13800      141 
   13900      141 
   14000      141 
   14100      141 
   14200      141 
   14300      141 
   14400      141 
   14500      141 
   14600      141 
   14700      141 
   14800      141 
   14900      141 
   15000      141 
   15100      141 
   15200      141 
   15300      141 
   15400      141 
   15500      141 
   15600      141 
   15700      141 
   15800      141 
   15900      141 
   16000      141 
   16100      141 
   16200      141 
   16300      141 
   16400      141 
   16500      141 
   16600      141 
   16700      141 
   16800      141 
   16900      141 
   17000      141 
   17100      141 
   17200      141 
   17300      141 
   17400      141 
   17500      141 
   17600      141 
   17700      141 
   17800      141 
   17900      141 
   18000      141 
   18100      141 
   18200      141 
   18300      141 
   18400      141 
   18500      141 
   18600      141 
   18700      141 
   18800      141 
   18900      141 
   19000      141 
   19100      141 
   19200      141 
   19300      141 
   19400      141 
   19500      141 
   19600      141 
   19700      141 
   19800      141 
   19900      141 
   20000      141 
   20100      141 
   20200      141 
   20300      141 
   20400      141 
   20500      141 
   20600      141 
   20700      141 
   20800      141 
   20900      141 
   21000      141 
   21100      141 
   21200      141 
   21300      141 
   21400      141 
   21500      141 
   21600      141 
   21700      141 
   21800      141 
   21900      141 
   22000      141 
   22100      141 
   22200      141 
   22300      141 
   22400      141 
   22500      141 
   22600      141 
   22700      141 
   22800      141 
   22900      141 
   23000      141 
   23100      141 
   23200      141 
   23300      141 
   23400      141 
   23500      141 
   23600      141 
   23700      141 
   23800      141 
   23900      141 
   24000      141 
   24100      141 
   24200      141 
   24300      141 
   24400      141 
   24500      141 
   24600      141 
   24700      141 
   24800      141 
   24900      141 
   25000      141 
   25100      141 
   25200      141 
   25300      141 
   25400      141 
   25500      141 
   25600      141 
   25700      141 
   25800      141 
   25900      141 
   26000      141 
   26100      141 
   26200      141 
   26300      141 
   26400      141 
   26500      141 
   26600      141 
   26700      141 
   26800      141 
   26900      141 
   27000      141 
   27100      141 
   27200      141 
   27300      141 
   27400      141 
   27500      141 
   27600      141 
   27700      141 
   27800      141 
   27900      141 
   28000      141 
   28100      141 
   28200      141 
   28300      141 
   28400      141 
   28500      141 
   28600      141 
   28700      141 
   28800      141 
   28900      141 
   29000      141 
   29100      141 
   29200      141 
   29300      141 
   29400      141 
   29500      141 
   29600      141 
   29700      141 
   29800      141 
   29900      141 
   30000      141 
   30100      141 
   30200      141 
   30300      141 
   30400      141 
   30500      141 
   30600      141 
   30700      141 
   30800      141 
   30900      141 
   31000      141 
   31100      141 
   31200      141 
   31300      141 
   31400      141 
   31500      141 
   31600      141 
   31700      141 
   31800      141 
   31900      141 
   32000      141 
   32100      141 
   32200      141 
   32300      141 
   32400      141 
   32500      141 
   32600      141 
   32700      141 
   32800      141 
   32900      141 
   33000      141 
   33100      141 
   33200      141 
   33300      141 
   33400      141 
   33500      141 
   33600      141 
   33700      141 
   33800      141 
   33900      141 
   34000      141 
   34100      141 
   34200      141 
   34300      141 
   34400      141 
   34500      141 
   34600      141 
   34700      141 
   34800      141 
   34900      141 
   35000      141 
   35100      141 
   35200      141 
   35300      141 
   35400      141 
   35500      141 
   35600      141 
   35700      141 
   35800      141 
   35900      141 
   36000      141 
   36100      141 
   36200      141 
   36300      141 
   36400      141 
   36500      141 
   36600      141 
   36700      141 
   36800      141 
   36900      141 
   37000      141 
   37100      141 
   37200      141 
   37300      141 
   37400      141 
   37500      141 
   37600      141 
   37700      141 
   37800      141 
   37900      141 
   38000      141 
   38100      141 
   38200      141 
   38300      141 
   38400      141 
   38500      141 
   38600      141 
   38700      141 
   38800      141 
   38900      141 
   39000      141 
   39100      141 
   39200      141 
   39300      141 
   39400      141 
   39500      141 
   39600      141 
   39700      141 
   39800      141 
   39900      141 
   40000      141 
   40100      141 
   40200      141 
   40300      141 
   40400      141 
   40500      141 
   40600      141 
   40700      141 
   40800      141 
   40900      141 
   41000      141 
   41100      141 
   41200      141 
   41300      141 
   41400      141 
   41500      141 
   41600      141 
   41700      141 
   41800      141 
   41900      141 
   42000      141 
   42100      141 
   42200      141 
   42300      141 
   42400      141 
   42500      141 
   42600      141 
   42700      141 
   42800      141 
   42900      141 
   43000      141 
   43100      141 
   43200      141 
   43300      141 
   43400      141 
   43500      141 
   43600      141 
   43700      141 
   43800      141 
   43900      141 
   44000      141 
   44100      141 
   44200      141 
   44300      141 
   44400      141 
   44500      141 
   44600      141 
   44700      141 
   44800      141 
   44900      141 
   45000      141 
   45100      141 
   45200      141 
   45300      141 
   45400      141 
   45500      141 
   45600      141 
   45700      141 
   45800      141 
   45900      141 
   46000      141 
   46100      141 
   46200      141 
   46300      141 
   46400      141 
   46500      141 
   46600      141 
   46700      141 
   46800      141 
   46900      141 
   47000      141 
   47100      141 
   47200      141 
   47300      141 
   47400      141 
   47500      141 
   47600      141 
   47700      141 
   47800      141 
   47900      141 
   48000      141 
   48100      141 
   48200      141 
   48300      141 
   48400      141 
   48500      141 
   48600      141 
   48700      141 
   48800      141 
   48900      141 
   49000      141 
   49100      141 
   49200      141 
   49300      141 
   49400      141 
   49500      141 
   49600      141 
   49700      141 
   49800      141 
   49900      141 
   50000      141 
   50100      141 
   50200      141 
   50300      141 
   50400      141 
   50500      141 
   50600      141 
   50700      141 
   50800      141 
   50900      141 
   51000      141 
   51100      141 
   51200      141 
   51300      141 
   51400      141 
   51500      141 
   51600      141 
   51700      141 
   51800      141 
   51900      141 
   52000      141 
   52100      141 
   52200      141 
   52300      141 
   52400      141 
   52500      141 
   52600      141 
   52700      141 
   52800      141 
   52900      141 
   53000      141 
   53100      141 
   53200      141 
   53300      141 
   53400      141 
   53500      141 
   53600      141 
   53700      141 
   53800      141 
   53900      141 
   54000      141 
   54100      141 
   54200      141 
   54300      141 
   54400      141 
   54500      141 
   54600      141 
   54700      141 
   54800      141 
   54900      141 
   55000      141 
   55100      141 
   55200      141 
   55300      141 
   55400      141 
   55500      141 
   55600      141 
   55700      141 
   55800      141 
   55900      141 
   56000      141 
   56100      141 
   56200      141 
   56300      141 
   56400      141 
   56500      141 
   56600      141 
   56700      141 
   56800      141 
   56900      141 
   57000      141 
   57100      141 
   57200      141 
   57300      141 
   57400      141 
   57500      141 
   57600      141 
   57700      141 
   57800      141 
   57900      141 
   58000      141 
   58100      141 
   58200      141 
   58300      141 
   58400      141 
   58500      141 
   58600      141 
   58700      141 
   58800      141 
   58900      141 
   59000      141 
   59100      141 
   59200      141 
   59300      141 
   59400      141 
   59500      141 
   59600      141 
   59700      141 
   59800      141 
   59900      141 
   60000      141 
   60100      141 
   60200      141 
   60300      141 
   60400      141 
   60500      141 
   60600      141 
   60700      141 
   60800      141 
   60900      141 
   61000      141 
   61100      141 
   61200      141 
   61300      141 
   61400      141 
   61500      141 
   61600      141 
   61700      141 
   61800      141 
   61900      141 
   62000      141 
   62100      141 
   62200      141 
   62300      141 
   62400      141 
   62500      141 
   62600      141 
   62700      141 
   62800      141 
   62900      141 
   63000      141 
   63100      141 
   63200      141 
   63300      141 
   63400      141 
   63500      141 
   63600      141 
   63700      141 
   63800      141 
   63900      141 
   64000      141 
   64100      141 
   64200      141 
   64300      141 
   64400      141 
   64500      141 
   64600      141 
   64700      141 
   64800      141 
   64900      141 
   65000      141 
   65100      141 
   65200      141 
   65300      141 
   65400      141 
   65500      141 
   65600      141 
   65700      141 
   65800      141 
   65900      141 
   66000      141 
   66100      141 
   66200      141 
   66300      141 
   66400      141 
   66500      141 
   66600      141 
   66700      141 
   66800      141 
   66900      141 
   67000      141 
   67100      141 
   67200      141 
   67300      141 
   67400      141 
   67500      141 
   67600      141 
   67700      141 
   67800      141 
   67900      141 
   68000      141 
   68100      141 
   68200      141 
   68300      141 
   68400      141 
   68500      141 
   68600      141 
   68700      141 
   68800      141 
   68900      141 
   69000      141 
   69100      141 
   69200      141 
   69300      141 
   69400      141 
   69500      141 
   69600      141 
   69700      141 
   69800      141 
   69900      141 
   70000      141 
   70100      141 
   70200      141 
   70300      141 
   70400      141 
   70500      141 
   70600      141 
   70700      141 
   70800      141 
   70900      141 
   71000      141 
   71100      141 
   71200      141 
   71300      141 
   71400      141 
   71500      141 
   71600      141 
   71700      141 
   71800      141 
   71900      141 
   72000      141 
   72100      141 
   72200      141 
   72300      141 
   72400      141 
   72500      141 
   72600      141 
   72700      141 
   72800      141 
   72900      141 
   73000      141 
   73100      141 
   73200      141 
   73300      141 
   73400      141 
   73500      141 
   73600      141 
   73700      141 
   73800      141 
   73900      141 
   74000      141 
   74100      141 
   74200      141 
   74300      141 
   74400      141 
   74500      141 
   74600      141 
   74700      141 
   74800      141 
   74900      141 
   75000      141 
   75100      141 
   75200      141 
   75300      141 
   75400      141 
   75500      141 
   75600      141 
   75700      141 
   75800      141 
   75900      141 
   76000      141 
   76100      141 
   76200      141 
   76300      141 
   76400      141 
   76500      141 
   76600      141 
   76700      141 
   76800      141 
   76900      141 
   77000      141 
   77100      141 
   77200      141 
   77300      141 
   77400      141 
   77500      141 
   77600      141 
   77700      141 
   77800      141 
   77900      141 
   78000      141 
   78100      141 
   78200      141 
   78300      141 
   78400      141 
   78500      141 
   78600      141 
   78700      141 
   78800      141 
   78900      141 
   79000      141 
   79100      141 
   79200      141 
   79300      141 
   79400      141 
   79500      141 
   79600      141 
   79700      141 
   79800      141 
   79900      141 
   80000      141 
   80100      141 
   80200      141 
   80300      141 
   80400      141 
   80500      141 
   80600      141 
   80700      141 
   80800      141 
   80900      141 
   81000      141 
   81100      141 
   81200      141 
   81300      141 
   81400      141 
   81500      141 
   81600      141 
   81700      141 
   81800      141 
   81900      141 
   82000      141 
   82100      141 
   82200      141 
   82300      141 
   82400      141 
   82500      141 
   82600      141 
   82700      141 
   82800      141 
   82900      141 
   83000      141 
   83100      141 
   83200      141 
   83300      141 
   83400      141 
   83500      141 
   83600      141 
   83700      141 
   83800      141 
   83900      141 
   84000      141 
   84100      141 
   84200      141 
   84300      141 
   84400      141 
   84500      141 
   84600      141 
   84700      141 
   84800      141 
   84900      141 
   85000      141 
   85100      141 
   85200      141 
   85300      141 
   85400      141 
   85500      141 
   85600      141 
   85700      141 
   85800      141 
   85900      141 
   86000      141 
   86100      141 
   86200      141 
   86300      141 
   86400      141 
   86500      141 
   86600      141 
   86700      141 
   86800      141 
   86900      141 
   87000      141 
   87100      141 
   87200      141 
   87300      141 
   87400      141 
   87500      141 
   87600      141 
   87700      141 
   87800      141 
   87900      141 
   88000      141 
   88100      141 
   88200      141 
   88300      141 
   88400      141 
   88500      141 
   88600      141 
   88700      141 
   88800      141 
   88900      141 
   89000      141 
   89100      141 
   89200      141 
   89300      141 
   89400      141 
   89500      141 
   89600      141 
   89700      141 
   89800      141 
   89900      141 
   90000      141 
   90100      141 
   90200      141 
   90300      141 
   90400      141 
   90500      141 
   90600      141 
   90700      141 
   90800      141 
   90900      141 
   91000      141 
   91100      141 
   91200      141 
   91300      141 
   91400      141 
   91500      141 
   91600      141 
   91700      141 
   91800      141 
   91900      141 
   92000      141 
   92100      141 
   92200      141 
   92300      141 
   92400      141 
   92500      141 
   92600      141 
   92700      141 
   92800      141 
   92900      141 
   93000      141 
   93100      141 
   93200      141 
   93300      141 
   93400      141 
   93500      141 
   93600      141 
   93700      141 
   93800      141 
   93900      141 
   94000      141 
   94100      141 
   94200      141 
   94300      141 
   94400      141 
   94500      141 
   94600      141 
   94700      141 
   94800      141 
   94900      141 
   95000      141 
   95100      141 
   95200      141 
   95300      141 
   95400      141 
   95500      141 
   95600      141 
   95700      141 
   95800      141 
   95900      141 
   96000      141 
   96100      141 
   96200      141 
   96300      141 
   96400      141 
   96500      141 
   96600      141 
   96700      141 
   96800      141 
   96900      141 
   97000      141 
   97100      141 
   97200      141 
   97300      141 
   97400      141 
   97500      141 
   97600      141 
   97700      141 
   97800      141 
   97900      141 
   98000      141 
   98100      141 
   98200      141 
   98300      141 
   98400      141 
   98500      141 
   98600      141 
   98700      141 
   98800      141 
   98900      141 
   99000      141 
   99100      141 
   99200      141 
   99300      141 
   99400      141 
   99500      141 
   99600      141 
   99700      141 
   99800      141 
   99900      141 
  100000      141 
  100100      141 
  100200      141 
  100300      141 
  100400      141 
  100500      141 
  100600      141 
  100700      141 
  100800      141 
  100900      141 
  101000      141 
  101100      141 
  101200      141 
  101300      141 
  101400      141 
  101500      141 
  101600      141 
  101700      141 
  101800      141 
  101900      141 
  102000      141 
  102100      141 
  102200      141 
  102300      141 
  102400      141 
  102500      141 
  102600      141 
  102700      141 
  102800      141 
  102900      141 
  103000      141 
  103100      141 
  103200      141 
  103300      141 
  103400      141 
  103500      141 
  103600      141 
  103700      141 
  103800      141 
  103900      141 
  104000      141 
  104100      141 
  104200      141 
  104300      141 
  104400      141 
  104500      141 
  104600      141 
  104700      141 
  104800      141 
  104900      141 
  105000      141 
  105100      141 
  105200      141 
  105300      141 
  105400      141 
  105500      141 
  105600      141 
  105700      141 
  105800      141 
  105900      141 
  106000      141 
  106100      141 
  106200      141 
  106300      141 
  106400      141 
  106500      141 
  106600      141 
  106700      141 
  106800      141 
  106900      141 
  107000      141 
  107100      141 
  107200      141 
  107300      141 
  107400      141 
  107500      141 
  107600      141 
  107700      141 
  107800      141 
  107900      141 
  108000      141 
  108100      141 
  108200      141 
  108300      141 
  108400      141 
  108500      141 
  108600      141 
  108700      141 
  108800      141 
  108900      141 
  109000      141 
  109100      141 
  109200      141 
  109300      141 
  109400      141 
  109500      141 
  109600      141 
  109700      141 
  109800      141 
  109900      141 
  110000      141 
  110100      141 
  110200      141 
  110300      141 
  110400      141 
  110500      141 
  110600      141 
  110700      141 
  110800      141 
  110900      141 
  111000      141 
  111100      141 
  111200      141 
  111300      141 
  111400      141 
  111500      141 
  111600      141 
  111700      141 
  111800      141 
  111900      141 
  112000      141 
  112100      141 
  112200      141 
  112300      141 
  112400      141 
  112500      141 
  112600      141 
  112700      141 
  112800      141 
  112900      141 
  113000      141 
  113100      141 
  113200      141 
  113300      141 
  113400      141 
  113500      141 
  113600      141 
  113700      141 
  113800      141 
  113900      141 
  114000      141 
  114100      141 
  114200      141 
  114300      141 
  114400      141 
  114500      141 
  114600      141 
  114700      141 
  114800      141 
  114900      141 
  115000      141 
  115100      141 
  115200      141 
  115300      141 
  115400      141 
  115500      141 
  115600      141 
  115700      141 
  115800      141 
  115900      141 
  116000      141 
  116100      141 
  116200      141 
  116300      141 
  116400      141 
  116500      141 
  116600      141 
  116700      141 
  116800      141 
  116900      141 
  117000      141 
  117100      141 
  117200      141 
  117300      141 
  117400      141 
  117500      141 
  117600      141 
  117700      141 
  117800      141 
  117900      141 
  118000      141 
  118100      141 
  118200      141 
  118300      141 
  118400      141 
  118500      141 
  118600      141 
  118700      141 
  118800      141 
  118900      141 
  119000      141 
  119100      141 
  119200      141 
  119300      141 
  119400      141 
  119500      141 
  119600      141 
  119700      141 
  119800      141 
  119900      141 
  120000      141 
  120100      141 
  120200      141 
  120300      141 
  120400      141 
  120500      141 
  120600      141 
  120700      141 
  120800      141 
  120900      141 
  121000      141 
  121100      141 
  121200      141 
  121300      141 
  121400      141 
  121500      141 
  121600      141 
  121700      141 
  121800      141 
  121900      141 
  122000      141 
  122100      141 
  122200      141 
  122300      141 
  122400      141 
  122500      141 
  122600      141 
  122700      141 
  122800      141 
  122900      141 
  123000      141 
  123100      141 
  123200      141 
  123300      141 
  123400      141 
  123500      141 
  123600      141 
  123700      141 
  123800      141 
  123900      141 
  124000      141 
  124100      141 
  124200      141 
  124300      141 
  124400      141 
  124500      141 
  124600      141 
  124700      141 
  124800      141 
  124900      141 
  125000      141 
  125100      141 
  125200      141 
  125300      141 
  125400      141 
  125500      141 
  125600      141 
  125700      141 
  125800      141 
  125900      141 
  126000      141 
  126100      141 
  126200      141 
  126300      141 
  126400      141 
  126500      141 
  126600      141 
  126700      141 
  126800      141 
  126900      141 
  127000      141 
  127100      141 
  127200      141 
  127300      141 
  127400      141 
  127500      141 
  127600      141 
  127700      141 
  127800      141 
  127900      141 
  128000      141 
  128100      141 
  128200      141 
  128300      141 
  128400      141 
  128500      141 
  128600      141 
  128700      141 
  128800      141 
  128900      141 
  129000      141 
  129100      141 
  129200      141 
  129300      141 
  129400      141 
  129500      141 
  129600      141 
  129700      141 
  129800      141 
  129900      141 
  130000      141 
  130100      141 
  130200      141 
  130300      141 
  130400      141 
  130500      141 
  130600      141 
  130700      141 
  130800      141 
  130900      141 
  131000      141 
  131100      141 
  131200      141 
  131300      141 
  131400      141 
  131500      141 
  131600      141 
  131700      141 
  131800      141 
  131900      141 
  132000      141 
  132100      141 
  132200      141 
  132300      141 
  132400      141 
  132500      141 
  132600      141 
  132700      141 
  132800      141 
  132900      141 
  133000      141 
  133100      141 
  133200      141 
  133300      141 
  133400      141 
  133500      141 
  133600      141 
  133700      141 
  133800      141 
  133900      141 
  134000      141 
  134100      141 
  134200      141 
  134300      141 
  134400      141 
  134500      141 
  134600      141 
  134700      141 
  134800      141 
  134900      141 
  135000      141 
  135100      141 
  135200      141 
  135300      141 
  135400      141 
  135500      141 
  135600      141 
  135700      141 
  135800      141 
  135900      141 
  136000      141 
  136100      141 
  136200      141 
  136300      141 
  136400      141 
  136500      141 
  136600      141 
  136700      141 
  136800      141 
  136900      141 
  137000      141 
  137100      141 
  137200      141 
  137300      141 
  137400      141 
  137500      141 
  137600      141 
  137700      141 
  137800      141 
  137900      141 
  138000      141 
  138100      141 
  138200      141 
  138300      141 
  138400      141 
  138500      141 
  138600      141 
  138700      141 
  138800      141 
  138900      141 
  139000      141 
  139100      141 
  139200      141 
  139300      141 
  139400      141 
  139500      141 
  139600      141 
  139700      141 
  139800      141 
  139900      141 
  140000      141 
  140100      141 
  140200      141 
  140300      141 
  140400      141 
  140500      141 
  140600      141 
  140700      141 
  140800      141 
  140900      141 
  141000      141 
  141100      141 
  141200      141 
  141300      141 
  141400      141 
  141500      141 
  141600      141 
  141700      141 
  141800      141 
  141900      141 
  142000      141 
  142100      141 
  142200      141 
  142300      141 
  142400      141 
  142500      141 
  142600      141 
  142700      141 
  142800      141 
  142900      141 
  143000      141 
  143100      141 
  143200      141 
  143300      141 
  143400      141 
  143500      141 
  143600      141 
  143700      141 
  143800      141 
  143900      141 
  144000      141 
  144100      141 
  144200      141 
  144300      141 
  144400      141 
  144500      141 
  144600      141 
  144700      141 
  144800      141 
  144900      141 
  145000      141 
  145100      141 
  145200      141 
  145300      141 
  145400      141 
  145500      141 
  145600      141 
  145700      141 
  145800      141 
  145900      141 
  146000      141 
  146100      141 
  146200      141 
  146300      141 
  146400      141 
  146500      141 
  146600      141 
  146700      141 
  146800      141 
  146900      141 
  147000      141 
  147100      141 
  147200      141 
  147300      141 
  147400      141 
  147500      141 
  147600      141 
  147700      141 
  147800      141 
  147900      141 
  148000      141 
  148100      141 
  148200      141 
  148300      141 
  148400      141 
  148500      141 
  148600      141 
  148700      141 
  148800      141 
  148900      141 
  149000      141 
  149100      141 
  149200      141 
  149300      141 
  149400      141 
  149500      141 
  149600      141 
  149700      141 
  149800      141 
  149900      141 
  150000      141 
  150100      141 
  150200      141 
  150300      141 
  150400      141 
  150500      141 
  150600      141 
  150700      141 
  150800      141 
  150900      141 
  151000      141 
  151100      141 
  151200      141 
  151300      141 
  151400      141 
  151500      141 
  151600      141 
  151700      141 
  151800      141 
  151900      141 
  152000      141 
  152100      141 
  152200      141 
  152300      141 
  152400      141 
  152500      141 
  152600      141 
  152700      141 
  152800      141 
  152900      141 
  153000      141 
  153100      141 
  153200      141 
  153300      141 
  153400      141 
  153500      141 
  153600      141 
  153700      141 
  153800      141 
  153900      141 
  154000      141 
  154100      141 
  154200      141 
  154300      141 
  154400      141 
  154500      141 
  154600      141 
  154700      141 
  154800      141 
  154900      141 
  155000      141 
  155100      141 
  155200      141 
  155300      141 
  155400      141 
  155500      141 
  155600      141 
  155700      141 
  155800      141 
  155900      141 
  156000      141 
  156100      141 
  156200      141 
  156300      141 
  156400      141 
  156500      141 
  156600      141 
  156700      141 
  156800      141 
  156900      141 
  157000      141 
  157100      141 
  157200      141 
  157300      141 
  157400      141 
  157500      141 
  157600      141 
  157700      141 
  157800      141 
  157900      141 
  158000      141 
  158100      141 
  158200      141 
  158300      141 
  158400      141 
  158500      141 
  158600      141 
  158700      141 
  158800      141 
  158900      141 
  159000      141 
  159100      141 
  159200      141 
  159300      141 
  159400      141 
  159500      141 
  159600      141 
  159700      141 
  159800      141 
  159900      141 
  160000      141 
  160100      141 
  160200      141 
  160300      141 
  160400      141 
  160500      141 
  160600      141 
  160700      141 
  160800      141 
  160900      141 
  161000      141 
  161100      141 
  161200      141 
  161300      141 
  161400      141 
  161500      141 
  161600      141 
  161700      141 
  161800      141 
  161900      141 
  162000      141 
  162100      141 
  162200      141 
  162300      141 
  162400      141 
  162500      141 
  162600      141 
  162700      141 
  162800      141 
  162900      141 
  163000      141 
  163100      141 
  163200      141 
  163300      141 
  163400      141 
  163500      141 
  163600      141 
  163700      141 
  163800      141 
  163900      141 
  164000      141 
  164100      141 
  164200      141 
  164300      141 
  164400      141 
  164500      141 
  164600      141 
  164700      141 
  164800      141 
  164900      141 
  165000      141 
  165100      141 
  165200      141 
  165300      141 
  165400      141 
  165500      141 
  165600      141 
  165700      141 
  165800      141 
  165900      141 
  166000      141 
  166100      141 
  166200      141 
  166300      141 
  166400      141 
  166500      141 
  166600      141 
  166700      141 
  166800      141 
  166900      141 
  167000      141 
  167100      141 
  167200      141 
  167300      141 
  167400      141 
  167500      141 
  167600      141 
  167700      141 
  167800      141 
  167900      141 
  168000      141 
  168100      141 
  168200      141 
  168300      141 
  168400      141 
  168500      141 
  168600      141 
  168700      141 
  168800      141 
  168900      141 
  169000      141 
  169100      141 
  169200      141 
  169300      141 
  169400      141 
  169500      141 
  169600      141 
  169700      141 
  169800      141 
  169900      141 
  170000      141 
  170100      141 
  170200      141 
  170300      141 
  170400      141 
  170500      141 
  170600      141 
  170700      141 
  170800      141 
  170900      141 
  171000      141 
  171100      141 
  171200      141 
  171300      141 
  171400      141 
  171500      141 
  171600      141 
  171700      141 
  171800      141 
  171900      141 
  172000      141 
  172100      141 
  172200      141 
  172300      141 
  172400      141 
  172500      141 
  172600      141 
  172700      141 
  172800      141 
  172900      141 
  173000      141 
  173100      141 
  173200      141 
  173300      141 
  173400      141 
  173500      141 
  173600      141 
  173700      141 
  173800      141 
  173900      141 
  174000      141 
  174100      141 
  174200      141 
  174300      141 
  174400      141 
  174500      141 
  174600      141 
  174700      141 
  174800      141 
  174900      141 
  175000      141 
  175100      141 
  175200      141 
  175300      141 
  175400      141 
  175500      141 
  175600      141 
  175700      141 
  175800      141 
  175900      141 
  176000      141 
  176100      141 
  176200      141 
  176300      141 
  176400      141 
  176500      141 
  176600      141 
  176700      141 
  176800      141 
  176900      141 
  177000      141 
  177100      141 
  177200      141 
  177300      141 
  177400      141 
  177500      141 
  177600      141 
  177700      141 
  177800      141 
  177900      141 
  178000      141 
  178100      141 
  178200      141 
  178300      141 
  178400      141 
  178500      141 
  178600      141 
  178700      141 
  178800      141 
  178900      141 
  179000      141 
  179100      141 
  179200      141 
  179300      141 
  179400      141 
  179500      141 
  179600      141 
  179700      141 
  179800      141 
  179900      141 
  180000      141 
  180100      141 
  180200      141 
  180300      141 
  180400      141 
  180500      141 
  180600      141 
  180700      141 
  180800      141 
  180900      141 
  181000      141 
  181100      141 
  181200      141 
  181300      141 
  181400      141 
  181500      141 
  181600      141 
  181700      141 
  181800      141 
  181900      141 
  182000      141 
  182100      141 
  182200      141 
  182300      141 
  182400      141 
  182500      141 
  182600      141 
  182700      141 
  182800      141 
  182900      141 
  183000      141 
  183100      141 
  183200      141 
  183300      141 
  183400      141 
  183500      141 
  183600      141 
  183700      141 
  183800      141 
  183900      141 
  184000      141 
  184100      141 
  184200      141 
  184300      141 
  184400      141 
  184500      141 
  184600      141 
  184700      141 
  184800      141 
  184900      141 
  185000      141 
  185100      141 
  185200      141 
  185300      141 
  185400      141 
  185500      141 
  185600      141 
  185700      141 
  185800      141 
  185900      141 
  186000      141 
  186100      141 
  186200      141 
  186300      141 
  186400      141 
  186500      141 
  186600      141 
  186700      141 
  186800      141 
  186900      141 
  187000      141 
  187100      141 
  187200      141 
  187300      141 
  187400      141 
  187500      141 
  187600      141 
  187700      141 
  187800      141 
  187900      141 
  188000      141 
  188100      141 
  188200      141 
  188300      141 
  188400      141 
  188500      141 
  188600      141 
  188700      141 
  188800      141 
  188900      141 
  189000      141 
  189100      141 
  189200      141 
  189300      141 
  189400      141 
  189500      141 
  189600      141 
  189700      141 
  189800      141 
  189900      141 
  190000      141 
  190100      141 
  190200      141 
  190300      141 
  190400      141 
  190500      141 
  190600      141 
  190700      141 
  190800      141 
  190900      141 
  191000      141 
  191100      141 
  191200      141 
  191300      141 
  191400      141 
  191500      141 
  191600      141 
  191700      141 
  191800      141 
  191900      141 
  192000      141 
  192100      141 
  192200      141 
  192300      141 
  192400      141 
  192500      141 
  192600      141 
  192700      141 
  192800      141 
  192900      141 
  193000      141 
  193100      141 
  193200      141 
  193300      141 
  193400      141 
  193500      141 
  193600      141 
  193700      141 
  193800      141 
  193900      141 
  194000      141 
  194100      141 
  194200      141 
  194300      141 
  194400      141 
  194500      141 
  194600      141 
  194700      141 
  194800      141 
  194900      141 
  195000      141 
  195100      141 
  195200      141 
  195300      141 
  195400      141 
  195500      141 
  195600      141 
  195700      141 
  195800      141 
  195900      141 
  196000      141 
  196100      141 
  196200      141 
  196300      141 
  196400      141 
  196500      141 
  196600      141 
  196700      141 
  196800      141 
  196900      141 
  197000      141 
  197100      141 
  197200      141 
  197300      141 
  197400      141 
  197500      141 
  197600      141 
  197700      141 
  197800      141 
  197900      141 
  198000      141 
  198100      141 
  198200      141 
  198300      141 
  198400      141 
  198500      141 
  198600      141 
  198700      141 
  198800      141 
  198900      141 
  199000      141 
  199100      141 
  199200      141 
  199300      141 
  199400      141 
  199500      141 
  199600      141 
  199700      141 
  199800      141 
  199900      141 
  200000      141 
  200100      141 
  200200      141 
  200300      141 
  200400      141 
  200500      141 
  200600      141 
  200700      141 
  200800      141 
  200900      141 
  201000      141 
  201100      141 
  201200      141 
  201300      141 
  201400      141 
  201500      141 
  201600      141 
  201700      141 
  201800      141 
  201900      141 
  202000      141 
  202100      141 
  202200      141 
  202300      141 
  202400      141 
  202500      141 
  202600      141 
  202700      141 
  202800      141 
  202900      141 
  203000      141 
  203100      141 
  203200      141 
  203300      141 
  203400      141 
  203500      141 
  203600      141 
  203700      141 
  203800      141 
  203900      141 
  204000      141 
  204100      141 
  204200      141 
  204300      141 
  204400      141 
  204500      141 
  204600      141 
  204700      141 
  204800      141 
  204900      141 
  205000      141 
  205100      141 
  205200      141 
  205300      141 
  205400      141 
  205500      141 
  205600      141 
  205700      141 
  205800      141 
  205900      141 
  206000      141 
  206100      141 
  206200      141 
  206300      141 
  206400      141 
  206500      141 
  206600      141 
  206700      141 
  206800      141 
  206900      141 
  207000      141 
  207100      141 
  207200      141 
  207300      141 
  207400      141 
  207500      141 
  207600      141 
  207700      141 
  207800      141 
  207900      141 
  208000      141 
  208100      141 
  208200      141 
  208300      141 
  208400      141 
  208500      141 
  208600      141 
  208700      141 
  208800      141 
  208900      141 
  209000      141 
  209100      141 
  209200      141 
  209300      141 
  209400      141 
  209500      141 
  209600      141 
  209700      141 
  209800      141 
  209900      141 
  210000      141 
  210100      141 
  210200      141 
  210300      141 
  210400      141 
  210500      141 
  210600      141 
  210700      141 
  210800      141 
  210900      141 
  211000      141 
  211100      141 
  211200      141 
  211300      141 
  211400      141 
  211500      141 
  211600      141 
  211700      141 
  211800      141 
  211900      141 
  212000      141 
  212100      141 
  212200      141 
  212300      141 
  212400      141 
  212500      141 
  212600      141 
  212700      141 
  212800      141 
  212900      141 
  213000      141 
  213100      141 
  213200      141 
  213300      141 
  213400      141 
  213500      141 
  213600      141 
  213700      141 
  213800      141 
  213900      141 
  214000      141 
  214100      141 
  214200      141 
  214300      141 
  214400      141 
  214500      141 
  214600      141 
  214700      141 
  214800      141 
  214900      141 
  215000      141 
  215100      141 
  215200      141 
  215300      141 
  215400      141 
  215500      141 
  215600      141 
  215700      141 
  215800      141 
  215900      141 
  216000      141 
  216100      141 
  216200      141 
  216300      141 
  216400      141 
  216500      141 
  216600      141 
  216700      141 
  216800      141 
  216900      141 
  217000      141 
  217100      141 
  217200      141 
  217300      141 
  217400      141 
  217500      141 
  217600      141 
  217700      141 
  217800      141 
  217900      141 
  218000      141 
  218100      141 
  218200      141 
  218300      141 
  218400      141 
  218500      141 
  218600      141 
  218700      141 
  218800      141 
  218900      141 
  219000      141 
  219100      141 
  219200      141 
  219300      141 
  219400      141 
  219500      141 
  219600      141 
  219700      141 
  219800      141 
  219900      141 
  220000      141 
  220100      141 
  220200      141 
  220300      141 
  220400      141 
  220500      141 
  220600      141 
  220700      141 
  220800      141 
  220900      141 
  221000      141 
  221100      141 
  221200      141 
  221300      141 
  221400      141 
  221500      141 
  221600      141 
  221700      141 
  221800      141 
  221900      141 
  222000      141 
  222100      141 
  222200      141 
  222300      141 
  222400      141 
  222500      141 
  222600      141 
  222700      141 
  222800      141 
  222900      141 
  223000      141 
  223100      141 
  223200      141 
  223300      141 
  223400      141 
  223500      141 
  223600      141 
  223700      141 
  223800      141 
  223900      141 
  224000      141 
  224100      141 
  224200      141 
  224300      141 
  224400      141 
  224500      141 
  224600      141 
  224700      141 
  224800      141 
  224900      141 
  225000      141 
  225100      141 
  225200      141 
  225300      141 
  225400      141 
  225500      141 
  225600      141 
  225700      141 
  225800      141 
  225900      141 
  226000      141 
  226100      141 
  226200      141 
  226300      141 
  226400      141 
  226500      141 
  226600      141 
  226700      141 
  226800      141 
  226900      141 
  227000      141 
  227100      141 
  227200      141 
  227300      141 
  227400      141 
  227500      141 
  227600      141 
  227700      141 
  227800      141 
  227900      141 
[...]
 1109500      141 
 1109600      141 
 1109700      141 
 1109800      141 
 1109900      141 
 1110000      141 
 1110100      141 
 1110200      141 
 1110300      141 
 1110400      141 
 1110500      141 
 1110600      141 
 1110700      141 
 1110800      141 
 1110900      141 
 1111000      141 
 1111100      141 
 1111200      141 
 1111300      141 
 1111400      141 
 1111500      141 
 1111600      141 
 1111700      141 
 1111800      141 
 1111900      141 
 1112000      141 
 1112100      141 
 1112200      141 
 1112300      141 
 1112400      141 
 1112500      141 
 1112600      141 
 1112700      141 
 1112800      141 
 1112900      141 
 1113000      141 
 1113100      141 
 1113200      141 
 1113300      141 
 1113400      141 
 1113500      141 
 1113600      141 
 1113700      141 
 1113800      141 
 1113900      141 
 1114000      141 
 1114100      141 
 1114200      141 
 1114300      141 
 1114400      141 
 1114500      141 
 1114600      141 
 1114700      141 
 1114800      141 
 1114900      141 
 1115000      141 
 1115100      141 
 1115200      141 
 1115300      141 
 1115400      141 
 1115500      141 
 1115600      141 
 1115700      141 
 1115800      141 
 1115900      141 
 1116000      141 
 1116100      141 
 1116200      141 
 1116300      141 
 1116400      141 
 1116500      141 
 1116600      141 
 1116700      141 
 1116800      141 
 1116900      141 
 1117000      141 
 1117100      141 
 1117200      141 
 1117300      141 
 1117400      141 
 1117500      141 
 1117600      141 
 1117700      141 
 1117800      141 
 1117900      141 
 1118000      141 
 1118100      141 
 1118200      141 
 1118300      141 
 1118400      141 
 1118500      141 
 1118600      141 
 1118700      141 
 1118800      141 
 1118900      141 
 1119000      141 
 1119100      141 
 1119200      141 
 1119300      141 
 1119400      141 
 1119500      141 
 1119600      141 
 1119700      141 
 1119800      141 
 1119900      141 
 1120000      141 
 1120100      141 
 1120200      141 
 1120300      141 
 1120400      141 
 1120500      141 
 1120600      141 
 1120700      141 
 1120800      141 
 1120900      141 
 1121000      141 
 1121100      141 
 1121200      141 
 1121300      141 
 1121400      141 
 1121500      141 
 1121600      141 
 1121700      141 
 1121800      141 
 1121900      141 
 1122000      141 
 1122100      141 
 1122200      141 
 1122300      141 
 1122400      141 
 1122500      141 
 1122600      141 
 1122700      141 
 1122800      141 
 1122900      141 
 1123000      141 
 1123100      141 
 1123200      141 
 1123300      141 
 1123400      141 
 1123500      141 
 1123600      141 
 1123700      141 
 1123800      141 
 1123900      141 
 1124000      141 
 1124100      141 
 1124200      141 
 1124300      141 
 1124400      141 
 1124500      141 
 1124600      141 
 1124700      141 
 1124800      141 
 1124900      141 
 1125000      141 
 1125100      141 
 1125200      141 
 1125300      141 
 1125400      141 
 1125500      141 
 1125600      141 
 1125700      141 
 1125800      141 
 1125900      141 
 1126000      141 
 1126100      141 
 1126200      141 
 1126300      141 
 1126400      141 
 1126500      141 
 1126600      141 
 1126700      141 
 1126800      141 
 1126900      141 
 1127000      141 
 1127100      141 
 1127200      141 
 1127300      141 
 1127400      141 
 1127500      141 
 1127600      141 
 1127700      141 
 1127800      141 
 1127900      141 
 1128000      141 
 1128100      141 
 1128200      141 
 1128300      141 
 1128400      141 
 1128500      141 
 1128600      141 
 1128700      141 
 1128800      141 
 1128900      141 
 1129000      141 
 1129100      141 
 1129200      141 
 1129300      141 
 1129400      141 
 1129500      141 
 1129600      141 
 1129700      141 
 1129800      141 
 1129900      141 
 1130000      141 
 1130100      141 
 1130200      141 
 1130300      141 
 1130400      141 
 1130500      141 
 1130600      141 
 1130700      141 
 1130800      141 
 1130900      141 
 1131000      141 
 1131100      141 
 1131200      141 
 1131300      141 
 1131400      141 
 1131500      141 
 1131600      141 
 1131700      141 
 1131800      141 
 1131900      141 
 1132000      141 
 1132100      141 
 1132200      141 
 1132300      141 
 1132400      141 
 1132500      141 
 1132600      141 
 1132700      141 
 1132800      141 
 1132900      141 
 1133000      141 
 1133100      141 
 1133200      141 
 1133300      141 
 1133400      141 
 1133500      141 
 1133600      141 
 1133700      141 
 1133800      141 
 1133900      141 
 1134000      141 
 1134100      141 
 1134200      141 
 1134300      141 
 1134400      141 
 1134500      141 
 1134600      141 
 1134700      141 
 1134800      141 
 1134900      141 
 1135000      141 
 1135100      141 
 1135200      141 
 1135300      141 
 1135400      141 
 1135500      141 
 1135600      141 
 1135700      141 
 1135800      141 
 1135900      141 
 1136000      141 
 1136100      141 
 1136200      141 
 1136300      141 
 1136400      141 
 1136500      141 
 1136600      141 
 1136700      141 
 1136800      141 
 1136900      141 
 1137000      141 
 1137100      141 
 1137200      141 
 1137300      141 
 1137400      141 
 1137500      141 
 1137600      141 
 1137700      141 
 1137800      141 
 1137900      141 
 1138000      141 
 1138100      141 
 1138200      141 
 1138300      141 
 1138400      141 
 1138500      141 
 1138600      141 
 1138700      141 
 1138800      141 
 1138900      141 
 1139000      141 
 1139100      141 
 1139200      141 
 1139300      141 
 1139400      141 
 1139500      141 
 1139600      141 
 1139700      141 
 1139800      141 
 1139900      141 
 1140000      141 
 1140100      141 
 1140200      141 
 1140300      141 
 1140400      141 
 1140500      141 
 1140600      141 
 1140700      141 
 1140800      141 
 1140900      141 
 1141000      141 
 1141100      141 
 1141200      141 
 1141300      141 
 1141400      141 
 1141500      141 
 1141600      141 
 1141700      141 
 1141800      141 
 1141900      141 
 1142000      141 
 1142100      141 
 1142200      141 
 1142300      141 
 1142400      141 
 1142500      141 
 1142600      141 
 1142700      141 
 1142800      141 
 1142900      141 
 1143000      141 
 1143100      141 
 1143200      141 
 1143300      141 
 1143400      141 
 1143500      141 
 1143600      141 
 1143700      141 
 1143800      141 
 1143900      141 
 1144000      141 
 1144100      141 
 1144200      141 
 1144300      141 
 1144400      141 
 1144500      141 
 1144600      141 
 1144700      141 
 1144800      141 
 1144900      141 
 1145000      141 
 1145100      141 
 1145200      141 
 1145300      141 
 1145400      141 
 1145500      141 
 1145600      141 
 1145700      141 
 1145800      141 
 1145900      141 
 1146000      141 
 1146100      141 
 1146200      141 
 1146300      141 
 1146400      141 
 1146500      141 
 1146600      141 
 1146700      141 
 1146800      141 
 1146900      141 
 1147000      141 
 1147100      141 
 1147200      141 
 1147300      141 
 1147400      141 
 1147500      141 
 1147600      141 
 1147700      141 
 1147800      141 
 1147900      141 
 1148000      141 
 1148100      141 
 1148200      141 
 1148300      141 
 1148400      141 
 1148500      141 
 1148600      141 
 1148700      141 
 1148800      141 
 1148900      141 
 1149000      141 
 1149100      141 
 1149200      141 
 1149300      141 
 1149400      141 
 1149500      141 
 1149600      141 
 1149700      141 
 1149800      141 
 1149900      141 
 1150000      141 
 1150100      141 
 1150200      141 
 1150300      141 
 1150400      141 
 1150500      141 
 1150600      141 
 1150700      141 
 1150800      141 
 1150900      141 
 1151000      141 
 1151100      141 
 1151200      141 
 1151300      141 
 1151400      141 
 1151500      141 
 1151600      141 
 1151700      141 
 1151800      141 
 1151900      141 
 1152000      141 
 1152100      141 
 1152200      141 
 1152300      141 
 1152400      141 
 1152500      141 
 1152600      141 
 1152700      141 
 1152800      141 
 1152900      141 
 1153000      141 
 1153100      141 
 1153200      141 
 1153300      141 
 1153400      141 
 1153500      141 
 1153600      141 
 1153700      141 
 1153800      141 
 1153900      141 
 1154000      141 
 1154100      141 
 1154200      141 
 1154300      141 
 1154400      141 
 1154500      141 
 1154600      141 
 1154700      141 
 1154800      141 
 1154900      141 
 1155000      141 
 1155100      141 
 1155200      141 
 1155300      141 
 1155400      141 
 1155500      141 
 1155600      141 
 1155700      141 
 1155800      141 
 1155900      141 
 1156000      141 
 1156100      141 
 1156200      141 
 1156300      141 
 1156400      141 
 1156500      141 
 1156600      141 
 1156700      141 
 1156800      141 
 1156900      141 
 1157000      141 
 1157100      141 
 1157200      141 
 1157300      141 
 1157400      141 
 1157500      141 
 1157600      141 
 1157700      141 
 1157800      141 
 1157900      141 
 1158000      141 
 1158100      141 
 1158200      141 
 1158300      141 
 1158400      141 
 1158500      141 
 1158600      141 
 1158700      141 
 1158800      141 
 1158900      141 
 1159000      141 
 1159100      141 
 1159200      141 
 1159300      141 
 1159400      141 
 1159500      141 
 1159600      141 
 1159700      141 
 1159800      141 
 1159900      141 
 1160000      141 
 1160100      141 
 1160200      141 
 1160300      141 
 1160400      141 
 1160500      141 
 1160600      141 
 1160700      141 
 1160800      141 
 1160900      141 
 1161000      141 
 1161100      141 
 1161200      141 
 1161300      141 
 1161400      141 
 1161500      141 
 1161600      141 
 1161700      141 
 1161800      141 
 1161900      141 
 1162000      141 
 1162100      141 
 1162200      141 
 1162300      141 
 1162400      141 
 1162500      141 
 1162600      141 
 1162700      141 
 1162800      141 
 1162900      141 
 1163000      141 
 1163100      141 
 1163200      141 
 1163300      141 
 1163400      141 
 1163500      141 
 1163600      141 
 1163700      141 
 1163800      141 
 1163900      141 
 1164000      141 
 1164100      141 
 1164200      141 
 1164300      141 
 1164400      141 
 1164500      141 
 1164600      141 
 1164700      141 
 1164800      141 
 1164900      141 
 1165000      141 
 1165100      141 
 1165200      141 
 1165300      141 
 1165400      141 
 1165500      141 
 1165600      141 
 1165700      141 
 1165800      141 
 1165900      141 
 1166000      141 
 1166100      141 
 1166200      141 
 1166300      141 
 1166400      141 
 1166500      141 
 1166600      141 
 1166700      141 
 1166800      141 
 1166900      141 
 1167000      141 
 1167100      141 
 1167200      141 
 1167300      141 
 1167400      141 
 1167500      141 
 1167600      141 
 1167700      141 
 1167800      141 
 1167900      141 
 1168000      141 
 1168100      141 
 1168200      141 
 1168300      141 
 1168400      141 
 1168500      141 
 1168600      141 
 1168700      141 
 1168800      141 
 1168900      141 
 1169000      141 
 1169100      141 
 1169200      141 
 1169300      141 
 1169400      141 
 1169500      141 
 1169600      141 
 1169700      141 
 1169800      141 
 1169900      141 
 1170000      141 
 1170100      141 
 1170200      141 
 1170300      141 
 1170400      141 
 1170500      141 
 1170600      141 
 1170700      141 
 1170800      141 
 1170900      141 
 1171000      141 
 1171100      141 
 1171200      141 
 1171300      141 
 1171400      141 
 1171500      141 
 1171600      141 
 1171700      141 
 1171800      141 
 1171900      141 
 1172000      141 
 1172100      141 
 1172200      141 
 1172300      141 
 1172400      141 
 1172500      141 
 1172600      141 
 1172700      141 
 1172800      141 
 1172900      141 
 1173000      141 
 1173100      141 
 1173200      141 
 1173300      141 
 1173400      141 
 1173500      141 
 1173600      141 
 1173700      141 
 1173800      141 
 1173900      141 
 1174000      141 
 1174100      141 
 1174200      141 
 1174300      141 
 1174400      141 
 1174500      141 
 1174600      141 
 1174700      141 
 1174800      141 
 1174900      141 
 1175000      141 
 1175100      141 
 1175200      141 
 1175300      141 
 1175400      141 
 1175500      141 
 1175600      141 
 1175700      141 
 1175800      141 
 1175900      141 
 1176000      141 
 1176100      141 
 1176200      141 
 1176300      141 
 1176400      141 
 1176500      141 
 1176600      141 
 1176700      141 
 1176800      141 
 1176900      141 
 1177000      141 
 1177100      141 
 1177200      141 
 1177300      141 
 1177400      141 
 1177500      141 
 1177600      141 
 1177700      141 
 1177800      141 
 1177900      141 
 1178000      141 
 1178100      141 
 1178200      141 
 1178300      141 
 1178400      141 
 1178500      141 
 1178600      141 
 1178700      141 
 1178800      141 
 1178900      141 
 1179000      141 
 1179100      141 
 1179200      141 
 1179300      141 
 1179400      141 
 1179500      141 
 1179600      141 
 1179700      141 
 1179800      141 
 1179900      141 
 1180000      141 
 1180100      141 
 1180200      141 
 1180300      141 
 1180400      141 
 1180500      141 
 1180600      141 
 1180700      141 
 1180800      141 
 1180900      141 
 1181000      141 
 1181100      141 
 1181200      141 
 1181300      141 
 1181400      141 
 1181500      141 
 1181600      141 
 1181700      141 
 1181800      141 
 1181900      141 
 1182000      141 
 1182100      141 
 1182200      141 
 1182300      141 
 1182400      141 
 1182500      141 
 1182600      141 
 1182700      141 
 1182800      141 
 1182900      141 
 1183000      141 
 1183100      141 
 1183200      141 
 1183300      141 
 1183400      141 
 1183500      141 
 1183600      141 
 1183700      141 
 1183800      141 
 1183900      141 
 1184000      141 
 1184100      141 
 1184200      141 
 1184300      141 
 1184400      141 
 1184500      141 
 1184600      141 
 1184700      141 
 1184800      141 
 1184900      141 
 1185000      141 
 1185100      141 
 1185200      141 
 1185300      141 
 1185400      141 
 1185500      141 
 1185600      141 
 1185700      141 
 1185800      141 
 1185900      141 
 1186000      141 
 1186100      141 
 1186200      141 
 1186300      141 
 1186400      141 
 1186500      141 
 1186600      141 
 1186700      141 
 1186800      141 
 1186900      141 
 1187000      141 
 1187100      141 
 1187200      141 
 1187300      141 
 1187400      141 
 1187500      141 
 1187600      141 
 1187700      141 
 1187800      141 
 1187900      141 
 1188000      141 
 1188100      141 
 1188200      141 
 1188300      141 
 1188400      141 
 1188500      141 
 1188600      141 
 1188700      141 
 1188800      141 
 1188900      141 
 1189000      141 
 1189100      141 
 1189200      141 
 1189300      141 
 1189400      141 
 1189500      141 
 1189600      141 
 1189700      141 
 1189800      141 
 1189900      141 
 1190000      141 
 1190100      141 
 1190200      141 
 1190300      141 
 1190400      141 
 1190500      141 
 1190600      141 
 1190700      141 
 1190800      141 
 1190900      141 
 1191000      141 
 1191100      141 
 1191200      141 
 1191300      141 
 1191400      141 
 1191500      141 
 1191600      141 
 1191700      141 
 1191800      141 
 1191900      141 
 1192000      141 
 1192100      141 
 1192200      141 
 1192300      141 
 1192400      141 
 1192500      141 
 1192600      141 
 1192700      141 
 1192800      141 
 1192900      141 
 1193000      141 
 1193100      141 
 1193200      141 
 1193300      141 
 1193400      141 
 1193500      141 
 1193600      141 
 1193700      141 
 1193800      141 
 1193900      141 
 1194000      141 
 1194100      141 
 1194200      141 
 1194300      141 
 1194400      141 
 1194500      141 
 1194600      141 
 1194700      141 
 1194800      141 
 1194900      141 
 1195000      141 
 1195100      141 
 1195200      141 
 1195300      141 
 1195400      141 
 1195500      141 
 1195600      141 
 1195700      141 
 1195800      141 
 1195900      141 
 1196000      141 
 1196100      141 
 1196200      141 
 1196300      141 
 1196400      141 
 1196500      141 
 1196600      141 
 1196700      141 
 1196800      141 
 1196900      141 
 1197000      141 
 1197100      141 
 1197200      141 
 1197300      141 
 1197400      141 
 1197500      141 
 1197600      141 
 1197700      141 
 1197800      141 
 1197900      141 
 1198000      141 
 1198100      141 
 1198200      141 
 1198300      141 
 1198400      141 
 1198500      141 
 1198600      141 
 1198700      141 
 1198800      141 
 1198900      141 
 1199000      141 
 1199100      141 
 1199200      141 
 1199300      141 
 1199400      141 
 1199500      141 
 1199600      141 
 1199700      141 
 1199800      141 
 1199900      141 
 1200000      141 
Loop time of 946.091 on 1 procs for 1200000 steps with 141 atoms

Performance: 5479390999850.938 ns/day, 0.000 hours/ns, 1268.378 timesteps/s
99.9% CPU use with 1 MPI tasks x no OpenMP threads

MPI task timing breakdown:
Section |  min time  |  avg time  |  max time  |%varavg| %total
---------------------------------------------------------------
Pair    | 878.19     | 878.19     | 878.19     |   0.0 | 92.82
Neigh   | 0.0054226  | 0.0054226  | 0.0054226  |   0.0 |  0.00
Comm    | 14.657     | 14.657     | 14.657     |   0.0 |  1.55
Output  | 3.3438     | 3.3438     | 3.3438     |   0.0 |  0.35
Modify  | 47.891     | 47.891     | 47.891     |   0.0 |  5.06
Other   |            | 2.003      |            |       |  0.21

Nlocal:    141 ave 141 max 141 min
Histogram: 1 0 0 0 0 0 0 0 0 0
Nghost:    713 ave 713 max 713 min
Histogram: 1 0 0 0 0 0 0 0 0 0
Neighs:    16957 ave 16957 max 16957 min
Histogram: 1 0 0 0 0 0 0 0 0 0

Total # of neighbors = 16957
Ave neighs/atom = 120.262
Neighbor list builds = 8
Dangerous builds = 0
Total wall time: 0:15:46
00      144 
 1196700      144 
 1196800      144 
 1196900      144 
 1197000      144 
 1197100      144 
 1197200      144 
 1197300      144 
 1197400      144 
 1197500      144 
 1197600      144 
 1197700      144 
 1197800      144 
 1197900      144 
 1198000      144 
 1198100      144 
 1198200      144 
 1198300      144 
 1198400      144 
 1198500      144 
 1198600      144 
 1198700      144 
 1198800      144 
 1198900      144 
 1199000      144 
 1199100      144 
 1199200      144 
 1199300      144 
 1199400      144 
 1199500      144 
 1199600      144 
 1199700      144 
 1199800      144 
 1199900      144 
 1200000      144 
Loop time of 966.52 on 1 procs for 1200000 steps with 144 atoms

Performance: 5363573074992.205 ns/day, 0.000 hours/ns, 1241.568 timesteps/s
99.9% CPU use with 1 MPI tasks x no OpenMP threads

MPI task timing breakdown:
Section |  min time  |  avg time  |  max time  |%varavg| %total
---------------------------------------------------------------
Pair    | 898.15     | 898.15     | 898.15     |   0.0 | 92.93
Neigh   | 0.0084338  | 0.0084338  | 0.0084338  |   0.0 |  0.00
Comm    | 15.104     | 15.104     | 15.104     |   0.0 |  1.56
Output  | 3.3859     | 3.3859     | 3.3859     |   0.0 |  0.35
Modify  | 47.854     | 47.854     | 47.854     |   0.0 |  4.95
Other   |            | 2.022      |            |       |  0.21

Nlocal:    144 ave 144 max 144 min
Histogram: 1 0 0 0 0 0 0 0 0 0
Nghost:    737 ave 737 max 737 min
Histogram: 1 0 0 0 0 0 0 0 0 0
Neighs:    17720 ave 17720 max 17720 min
Histogram: 1 0 0 0 0 0 0 0 0 0

Total # of neighbors = 17720
Ave neighs/atom = 123.056
Neighbor list builds = 13
Dangerous builds = 0
Total wall time: 0:16:06
